                         Program Version 5.0.4 -  RELEASE  -
|  1> ! nofrozencore ReducedPop printbasis
|  2> ! B3LYP TZVP
|  3>
|  4> %basis
|  5> newgto V "CP(PPP)" end
|  6> end
|  7>
|  8> %pal
|  9> nprocs 8
| 10> end
| 11>
| 12> % sym SymThresh 1e-2 end
| 13> * xyz -2 2
| 14> V 0.5462692278754993 -0.9174532932998265 -0.314301221678517
| 15> S 2.415352710371705 0.6860241327515231 -0.05984107319040056
| 16> S 0.4519163250266103 -0.9065444865746145 2.16000005120153
| 17> S 0.04884674745937276 0.26863907035256707 -2.4277234074183056
| 18> S -1.8992612794338741 -1.2191774306671137 -0.2177267029423335
| 19> O 1.1815610425956222 -2.3206526655874824 -0.7037016645277021
| 20> C -1.1194863672249082 -1.669645968303002 2.3836816554934743
| 21> C -2.064654543496001 -1.7914504540983682 1.4326211056200695
| 22> C 2.378249614027194 1.4720022597056686 -1.6440716091280534
| 23> C 1.4378670232489765 1.3124889399526396 -2.5933247935033363
| 24> S -1.54773828691034 -2.2732516812675665 4.024408346994006
| 25> S -3.617098389764681 -2.5250881897357704 1.9447537848940375
| 26> S 1.6627631900929072 2.2985569119289515 -4.063399373320779
| 27> S 3.724839353935034 2.6322628477305914 -1.9876814867931116
| 28> C -3.218035013762856 -2.7897226807534157 3.6173209014815475
| 29> C 3.0036906837915054 3.1370946709373153 -3.6817063551943976
| 30> C -4.087684407790823 -3.343059146544868 4.516685680983843
| 31> C 3.5388981608129555 4.088891572007013 -4.509112909879248
| 32> S -3.5750329795356808 -3.643587192099479 6.241579178088255
| 33> S -5.705791386508525 -3.8313333691972775 4.101853896646802
| 34> S 5.186232759985687 4.988598821466729 -3.8185220128156936
| 35> S 3.032106184285304 4.598956691500671 -5.908737875206431
| 36> C 2.6176091598238305 6.355543413326836 -5.469373998610284
| 37> C 4.506978899467118 6.704743383982379 -3.7552621114595586
| 38> C 3.858604395613026 7.173430446366877 -5.042718885013275
| 39> H 1.6946580249882963 6.460066909004754 -4.853713516072979
| 40> H 2.4164016489977476 6.740320813085602 -6.502630366461485
| 41> H 3.5365371185353403 8.217037610285105 -4.918494751950013
| 42> H 4.534857276401408 7.145339462094746 -5.912002348747653
| 43> H 5.221767883511136 7.409248316602359 -3.262160703393799
| 44> H 3.6391207973408015 6.578544137300495 -3.0665554536228314
| 45> C -5.545069318930568 -5.648810033854924 4.42036035099174
| 46> C -3.7401757260846624 -5.486891215398031 6.246365576904941
| 47> C -5.1311505978333 -5.984136468628734 5.8582744581758535
| 48> H -3.0063388884979596 -5.871598210714877 5.5330076605417515
| 49> H -3.451393655478977 -5.826521756878896 7.245146623422698
| 50> H -5.882669024363973 -5.573997668396121 6.5407484323013225
| 51> H -5.150211676695147 -7.07728966801049 5.970345153293061
| 52> H -6.5521848073476825 -6.038619935658303 4.243472372068931
| 53> H -4.870023315541482 -6.087256601706946 3.680613370831494
| 54> *
| 55>
| 56> % eprnmr
| 57> gtensor true
| 58> Nuclei = all H {aiso,adip,aorb,fgrad,rho}
| 59> Nuclei = all V {aiso,adip,aorb,fgrad,rho}
| 60> end
| 61>
| 62>                          ****END OF INPUT****

CARTESIAN COORDINATES (ANGSTROEM)
---------------------------------
  V      0.543633   -0.916028   -0.311910
  S      2.412717    0.687449   -0.057450
  S      0.449280   -0.905119    2.162391
  S      0.046211    0.270064   -2.425332
  S     -1.901897   -1.217752   -0.215335
  O      1.178925   -2.319228   -0.701310
  C     -1.122122   -1.668221    2.386073
  C     -2.067291   -1.790025    1.435012
  C      2.375614    1.473427   -1.641680
  C      1.435231    1.313914   -2.590934
  S     -1.550374   -2.271827    4.026800
  S     -3.619734   -2.523663    1.947145
  S      1.660127    2.299982   -4.061008
  S      3.722203    2.633688   -1.985290
  C     -3.220671   -2.788298    3.619712
  C      3.001055    3.138520   -3.679315
  C     -4.090320   -3.341634    4.519077
  C      3.536262    4.090317   -4.506722
  S     -3.577669   -3.642162    6.243970
  S     -5.708427   -3.829908    4.104245
  S      5.183597    4.990024   -3.816131
  S      3.029470    4.600382   -5.906347
  C      2.614973    6.356968   -5.466983
  C      4.504343    6.706168   -3.752871
  C      3.855968    7.174855   -5.040328
  H      1.692022    6.461492   -4.851322
  H      2.413766    6.741746   -6.500239
  H      3.533901    8.218463   -4.916103
  H      4.532221    7.146765   -5.909611
  H      5.219132    7.410673   -3.259769
  H      3.636485    6.579969   -3.064164
  C     -5.547705   -5.647385    4.422752
  C     -3.742812   -5.485466    6.248757
  C     -5.133787   -5.982711    5.860666
  H     -3.008975   -5.870173    5.535399
  H     -3.454030   -5.825097    7.247538
  H     -5.885305   -5.572573    6.543140
  H     -5.152848   -7.075865    5.972736
  H     -6.554821   -6.037195    4.245864
  H     -4.872659   -6.085832    3.683005

 Total Charge           Charge          ....   -2
 Multiplicity           Mult            ....    2
 Number of Electrons    NEL             ....  321
 Basis Dimension        Dim             ....  681

ORBITAL ENERGIES
----------------
                 SPIN UP ORBITALS
  NO   OCC          E(Eh)            E(eV)
   0   1.0000    -196.676347     -5351.8355
   1   1.0000     -88.734421     -2414.5864
   2   1.0000     -88.734122     -2414.5782
   3   1.0000     -88.732592     -2414.5366
   4   1.0000     -88.732383     -2414.5309
   5   1.0000     -88.732113     -2414.5235
   6   1.0000     -88.731104     -2414.4961
   7   1.0000     -88.730730     -2414.4859
   8   1.0000     -88.721533     -2414.2356
   9   1.0000     -88.642628     -2412.0885
  10   1.0000     -88.640770     -2412.0380
  11   1.0000     -88.640725     -2412.0367
  12   1.0000     -88.640690     -2412.0358
  13   1.0000     -22.051735      -600.0582
  14   1.0000     -18.891613      -514.0669
  15   1.0000     -18.558171      -504.9935
  16   1.0000     -18.553015      -504.8532
  17   1.0000     -18.552914      -504.8505
  18   1.0000     -10.076432      -274.1937
  19   1.0000     -10.075544      -274.1695
  20   1.0000     -10.064855      -273.8786
  21   1.0000     -10.064219      -273.8613
  22   1.0000     -10.063719      -273.8477
  23   1.0000     -10.062284      -273.8087
  24   1.0000     -10.051754      -273.5221
  25   1.0000     -10.050807      -273.4964
  26   1.0000     -10.048710      -273.4393
  27   1.0000     -10.043643      -273.3014
  28   1.0000     -10.021005      -272.6854
  29   1.0000     -10.019273      -272.6383
  30   1.0000     -10.019263      -272.6380
  31   1.0000     -10.018157      -272.6079
  32   1.0000      -7.791908      -212.0286
  33   1.0000      -7.789255      -211.9564
  34   1.0000      -7.788463      -211.9349
  35   1.0000      -7.785548      -211.8555
  36   1.0000      -7.784695      -211.8323
  37   1.0000      -7.783753      -211.8067
  38   1.0000      -7.783003      -211.7863
  39   1.0000      -7.773515      -211.5281
  40   1.0000      -7.696608      -209.4354
  41   1.0000      -7.695290      -209.3995
  42   1.0000      -7.695119      -209.3948
  43   1.0000      -7.694930      -209.3897
  44   1.0000      -5.756599      -156.6450
  45   1.0000      -5.753473      -156.5600
  46   1.0000      -5.753432      -156.5588
  47   1.0000      -5.752531      -156.5343
  48   1.0000      -5.750538      -156.4801
  49   1.0000      -5.749888      -156.4624
  50   1.0000      -5.749508      -156.4521
  51   1.0000      -5.749186      -156.4433
  52   1.0000      -5.748822      -156.4334
  53   1.0000      -5.748543      -156.4258
  54   1.0000      -5.747266      -156.3911
  55   1.0000      -5.747086      -156.3862
  56   1.0000      -5.745619      -156.3463
  57   1.0000      -5.745106      -156.3323
  58   1.0000      -5.744355      -156.3118
  59   1.0000      -5.743877      -156.2988
  60   1.0000      -5.743319      -156.2837
  61   1.0000      -5.740616      -156.2101
  62   1.0000      -5.740290      -156.2012
  63   1.0000      -5.739480      -156.1792
  64   1.0000      -5.738368      -156.1489
  65   1.0000      -5.738291      -156.1468
  66   1.0000      -5.735622      -156.0742
  67   1.0000      -5.728235      -155.8732
  68   1.0000      -5.661963      -154.0698
  69   1.0000      -5.660585      -154.0323
  70   1.0000      -5.660408      -154.0275
  71   1.0000      -5.660272      -154.0238
  72   1.0000      -5.655250      -153.8872
  73   1.0000      -5.653968      -153.8523
  74   1.0000      -5.653961      -153.8521
  75   1.0000      -5.653771      -153.8469
  76   1.0000      -5.653605      -153.8424
  77   1.0000      -5.652575      -153.8144
  78   1.0000      -5.652437      -153.8106
  79   1.0000      -5.652234      -153.8051
  80   1.0000      -2.445398       -66.5427
  81   1.0000      -1.486686       -40.4548
  82   1.0000      -1.475046       -40.1381
  83   1.0000      -1.474228       -40.1158
  84   1.0000      -0.721574       -19.6350
  85   1.0000      -0.710581       -19.3359
  86   1.0000      -0.689742       -18.7688
  87   1.0000      -0.686413       -18.6782
  88   1.0000      -0.651192       -17.7198
  89   1.0000      -0.645321       -17.5601
  90   1.0000      -0.633035       -17.2258
  91   1.0000      -0.616808       -16.7842
  92   1.0000      -0.606281       -16.4977
  93   1.0000      -0.587642       -15.9905
  94   1.0000      -0.577128       -15.7045
  95   1.0000      -0.572230       -15.5712
  96   1.0000      -0.563579       -15.3358
  97   1.0000      -0.498462       -13.5639
  98   1.0000      -0.497327       -13.5330
  99   1.0000      -0.495431       -13.4814
 100   1.0000      -0.488485       -13.2924
 101   1.0000      -0.480230       -13.0677
 102   1.0000      -0.478032       -13.0079
 103   1.0000      -0.446870       -12.1600
 104   1.0000      -0.439732       -11.9657
 105   1.0000      -0.417063       -11.3489
 106   1.0000      -0.412155       -11.2153
 107   1.0000      -0.355812        -9.6821
 108   1.0000      -0.353747        -9.6259
 109   1.0000      -0.327312        -8.9066
 110   1.0000      -0.326566        -8.8863
 111   1.0000      -0.322033        -8.7630
 112   1.0000      -0.316981        -8.6255
 113   1.0000      -0.304373        -8.2824
 114   1.0000      -0.299981        -8.1629
 115   1.0000      -0.292517        -7.9598
 116   1.0000      -0.283664        -7.7189
 117   1.0000      -0.268252        -7.2995
 118   1.0000      -0.259936        -7.0732
 119   1.0000      -0.254867        -6.9353
 120   1.0000      -0.243366        -6.6223
 121   1.0000      -0.238901        -6.5008
 122   1.0000      -0.234936        -6.3929
 123   1.0000      -0.231209        -6.2915
 124   1.0000      -0.225925        -6.1477
 125   1.0000      -0.219418        -5.9707
 126   1.0000      -0.217288        -5.9127
 127   1.0000      -0.214702        -5.8423
 128   1.0000      -0.211707        -5.7608
 129   1.0000      -0.195173        -5.3109
 130   1.0000      -0.191578        -5.2131
 131   1.0000      -0.187087        -5.0909
 132   1.0000      -0.182567        -4.9679
 133   1.0000      -0.174903        -4.7593
 134   1.0000      -0.161992        -4.4080
 135   1.0000      -0.151748        -4.1293
 136   1.0000      -0.147087        -4.0024
 137   1.0000      -0.136715        -3.7202
 138   1.0000      -0.135223        -3.6796
 139   1.0000      -0.133282        -3.6268
 140   1.0000      -0.126165        -3.4331
 141   1.0000      -0.121851        -3.3157
 142   1.0000      -0.114752        -3.1226
 143   1.0000      -0.110399        -3.0041
 144   1.0000      -0.100554        -2.7362
 145   1.0000      -0.099223        -2.7000
 146   1.0000      -0.095988        -2.6120
 147   1.0000      -0.088966        -2.4209
 148   1.0000      -0.075848        -2.0639
 149   1.0000      -0.067882        -1.8472
 150   1.0000      -0.062671        -1.7054
 151   1.0000      -0.053644        -1.4597
 152   1.0000      -0.046727        -1.2715
 153   1.0000      -0.038574        -1.0497
 154   1.0000      -0.037375        -1.0170
 155   1.0000      -0.031249        -0.8503
 156   1.0000      -0.026275        -0.7150
 157   1.0000      -0.020529        -0.5586
 158   1.0000      -0.016733        -0.4553
 159   1.0000       0.018994         0.5169
 160   1.0000       0.039756         1.0818
 161   0.0000       0.129573         3.5259
 162   0.0000       0.136171         3.7054
 163   0.0000       0.139732         3.8023
 164   0.0000       0.160476         4.3668
 165   0.0000       0.165624         4.5069

                 SPIN DOWN ORBITALS
  NO   OCC          E(Eh)            E(eV)
   0   1.0000    -196.676494     -5351.8395
   1   1.0000     -88.734422     -2414.5864
   2   1.0000     -88.734123     -2414.5782
   3   1.0000     -88.732593     -2414.5366
   4   1.0000     -88.732390     -2414.5311
   5   1.0000     -88.732122     -2414.5238
   6   1.0000     -88.731113     -2414.4963
   7   1.0000     -88.730739     -2414.4861
   8   1.0000     -88.721534     -2414.2357
   9   1.0000     -88.642768     -2412.0923
  10   1.0000     -88.640914     -2412.0419
  11   1.0000     -88.640864     -2412.0405
  12   1.0000     -88.640824     -2412.0394
  13   1.0000     -22.036799      -599.6518
  14   1.0000     -18.895409      -514.1702
  15   1.0000     -18.552898      -504.8500
  16   1.0000     -18.536975      -504.4167
  17   1.0000     -18.536799      -504.4119
  18   1.0000     -10.076427      -274.1935
  19   1.0000     -10.075545      -274.1695
  20   1.0000     -10.064855      -273.8786
  21   1.0000     -10.064218      -273.8613
  22   1.0000     -10.063719      -273.8477
  23   1.0000     -10.062284      -273.8087
  24   1.0000     -10.051754      -273.5221
  25   1.0000     -10.050807      -273.4964
  26   1.0000     -10.048699      -273.4390
  27   1.0000     -10.043639      -273.3013
  28   1.0000     -10.020782      -272.6793
  29   1.0000     -10.019069      -272.6327
  30   1.0000     -10.019026      -272.6315
  31   1.0000     -10.017933      -272.6018
  32   1.0000      -7.791908      -212.0286
  33   1.0000      -7.789265      -211.9567
  34   1.0000      -7.788464      -211.9349
  35   1.0000      -7.785549      -211.8556
  36   1.0000      -7.784705      -211.8326
  37   1.0000      -7.783762      -211.8069
  38   1.0000      -7.783011      -211.7865
  39   1.0000      -7.773516      -211.5281
  40   1.0000      -7.696739      -209.4389
  41   1.0000      -7.695414      -209.4029
  42   1.0000      -7.695248      -209.3983
  43   1.0000      -7.695064      -209.3933
  44   1.0000      -5.756600      -156.6450
  45   1.0000      -5.753488      -156.5604
  46   1.0000      -5.753433      -156.5589
  47   1.0000      -5.752531      -156.5343
  48   1.0000      -5.750539      -156.4801
  49   1.0000      -5.749889      -156.4624
  50   1.0000      -5.749520      -156.4524
  51   1.0000      -5.749200      -156.4437
  52   1.0000      -5.748831      -156.4337
  53   1.0000      -5.748550      -156.4260
  54   1.0000      -5.747267      -156.3911
  55   1.0000      -5.747087      -156.3862
  56   1.0000      -5.745627      -156.3465
  57   1.0000      -5.745119      -156.3326
  58   1.0000      -5.744369      -156.3122
  59   1.0000      -5.743891      -156.2992
  60   1.0000      -5.743320      -156.2837
  61   1.0000      -5.740625      -156.2104
  62   1.0000      -5.740291      -156.2013
  63   1.0000      -5.739488      -156.1794
  64   1.0000      -5.738372      -156.1490
  65   1.0000      -5.738292      -156.1469
  66   1.0000      -5.735624      -156.0743
  67   1.0000      -5.728236      -155.8732
  68   1.0000      -5.662107      -154.0738
  69   1.0000      -5.660723      -154.0361
  70   1.0000      -5.660546      -154.0313
  71   1.0000      -5.660414      -154.0277
  72   1.0000      -5.655612      -153.8970
  73   1.0000      -5.654303      -153.8614
  74   1.0000      -5.654155      -153.8574
  75   1.0000      -5.654073      -153.8551
  76   1.0000      -5.653995      -153.8530
  77   1.0000      -5.652678      -153.8172
  78   1.0000      -5.652523      -153.8130
  79   1.0000      -5.652330      -153.8077
  80   1.0000      -2.400499       -65.3209
  81   1.0000      -1.467371       -39.9292
  82   1.0000      -1.412671       -38.4407
  83   1.0000      -1.412485       -38.4357
  84   1.0000      -0.721564       -19.6347
  85   1.0000      -0.710554       -19.3352
  86   1.0000      -0.689705       -18.7678
  87   1.0000      -0.686358       -18.6768
  88   1.0000      -0.659325       -17.9411
  89   1.0000      -0.645303       -17.5596
  90   1.0000      -0.632965       -17.2238
  91   1.0000      -0.616803       -16.7841
  92   1.0000      -0.606235       -16.4965
  93   1.0000      -0.587600       -15.9894
  94   1.0000      -0.577072       -15.7029
  95   1.0000      -0.572173       -15.5696
  96   1.0000      -0.563548       -15.3349
  97   1.0000      -0.498480       -13.5643
  98   1.0000      -0.497356       -13.5337
  99   1.0000      -0.495474       -13.4825
 100   1.0000      -0.488594       -13.2953
 101   1.0000      -0.480392       -13.0721
 102   1.0000      -0.478250       -13.0138
 103   1.0000      -0.446898       -12.1607
 104   1.0000      -0.439773       -11.9668
 105   1.0000      -0.417058       -11.3487
 106   1.0000      -0.412258       -11.2181
 107   1.0000      -0.355802        -9.6819
 108   1.0000      -0.353743        -9.6258
 109   1.0000      -0.327295        -8.9061
 110   1.0000      -0.326556        -8.8860
 111   1.0000      -0.321986        -8.7617
 112   1.0000      -0.316988        -8.6257
 113   1.0000      -0.304325        -8.2811
 114   1.0000      -0.299940        -8.1618
 115   1.0000      -0.292512        -7.9596
 116   1.0000      -0.283662        -7.7188
 117   1.0000      -0.268173        -7.2974
 118   1.0000      -0.259873        -7.0715
 119   1.0000      -0.254772        -6.9327
 120   1.0000      -0.243262        -6.6195
 121   1.0000      -0.238880        -6.5003
 122   1.0000      -0.234909        -6.3922
 123   1.0000      -0.231173        -6.2905
 124   1.0000      -0.225821        -6.1449
 125   1.0000      -0.218973        -5.9586
 126   1.0000      -0.217148        -5.9089
 127   1.0000      -0.214581        -5.8391
 128   1.0000      -0.211663        -5.7596
 129   1.0000      -0.193443        -5.2639
 130   1.0000      -0.191462        -5.2099
 131   1.0000      -0.186789        -5.0828
 132   1.0000      -0.182381        -4.9628
 133   1.0000      -0.174761        -4.7555
 134   1.0000      -0.161408        -4.3921
 135   1.0000      -0.151539        -4.1236
 136   1.0000      -0.146954        -3.9988
 137   1.0000      -0.135942        -3.6992
 138   1.0000      -0.134935        -3.6718
 139   1.0000      -0.133073        -3.6211
 140   1.0000      -0.125700        -3.4205
 141   1.0000      -0.121533        -3.3071
 142   1.0000      -0.116590        -3.1726
 143   1.0000      -0.112055        -3.0492
 144   1.0000      -0.100544        -2.7359
 145   1.0000      -0.099492        -2.7073
 146   1.0000      -0.096179        -2.6172
 147   1.0000      -0.089010        -2.4221
 148   1.0000      -0.072106        -1.9621
 149   1.0000      -0.067877        -1.8470
 150   1.0000      -0.062615        -1.7038
 151   1.0000      -0.051053        -1.3892
 152   1.0000      -0.045783        -1.2458
 153   1.0000      -0.038048        -1.0354
 154   1.0000      -0.037431        -1.0186
 155   1.0000      -0.031214        -0.8494
 156   1.0000      -0.027290        -0.7426
 157   1.0000      -0.016934        -0.4608
 158   1.0000       0.019295         0.5250
 159   1.0000       0.038649         1.0517
 160   0.0000       0.129698         3.5293
 161   0.0000       0.136181         3.7057
 162   0.0000       0.139985         3.8092
 163   0.0000       0.155233         4.2241
 164   0.0000       0.161506         4.3948

MULLIKEN ATOMIC CHARGES AND SPIN POPULATIONS
--------------------------------------------
   0 V :    0.470232    1.210958
   1 S :   -0.285565   -0.023207
   2 S :   -0.288615   -0.025734
   3 S :   -0.287331   -0.022202
   4 S :   -0.285103   -0.025433
   5 O :   -0.466724   -0.147033
   6 C :   -0.072749    0.009580
   7 C :   -0.088980    0.008182
   8 C :   -0.061440    0.008057
   9 C :   -0.109698    0.007060
  10 S :    0.092359   -0.000574
  11 S :    0.109825   -0.000642
  12 S :    0.153027   -0.000513
  13 S :    0.069207   -0.000230
  14 C :   -0.213575    0.001535
  15 C :   -0.220277    0.000921
  16 C :   -0.192277   -0.000096
  17 C :   -0.198206   -0.000370
  18 S :   -0.004303   -0.000128
  19 S :    0.022710   -0.000099
  20 S :   -0.069959   -0.000149
  21 S :    0.081591   -0.000043
  22 C :   -0.289651   -0.000002
  23 C :   -0.299369   -0.000002
  24 C :   -0.158948   -0.000006
  25 H :    0.143871   -0.000003
  26 H :    0.083225   -0.000005
  27 H :    0.083364   -0.000001
  28 H :    0.089572   -0.000001
  29 H :    0.128963   -0.000007
  30 H :    0.137102   -0.000001
  31 C :   -0.298466    0.000200
  32 C :   -0.301430    0.000184
  33 C :   -0.158086   -0.000238
  34 H :    0.141370   -0.000018
  35 H :    0.118048    0.000017
  36 H :    0.092323    0.000023
  37 H :    0.082914    0.000015
  38 H :    0.108507    0.000022
  39 H :    0.142541   -0.000017
Sum of atomic charges         :   -2.0000000

LOEWDIN ATOMIC CHARGES AND SPIN POPULATIONS
-------------------------------------------
   0 V :   -0.155431    1.164287
   1 S :    0.079468   -0.015111
   2 S :    0.079083   -0.016555
   3 S :    0.086414   -0.014259
   4 S :    0.084738   -0.016054
   5 O :   -0.318282   -0.131918
   6 C :   -0.547680    0.008925
   7 C :   -0.554042    0.008089
   8 C :   -0.541966    0.008407
   9 C :   -0.561037    0.007412
  10 S :    0.458703   -0.000881
  11 S :    0.486171   -0.000971
  12 S :    0.552139   -0.000953
  13 S :    0.414181   -0.000699
  14 C :   -0.465400    0.000162
  15 C :   -0.471723   -0.000141
  16 C :   -0.622638    0.000468
  17 C :   -0.626925    0.000086
  18 S :    0.339252   -0.000104
  19 S :    0.379569   -0.000074
  20 S :    0.247396   -0.000140
  21 S :    0.462861   -0.000054
  22 C :   -0.288895   -0.000007
  23 C :   -0.305244   -0.000008
  24 C :   -0.178295   -0.000002
  25 H :    0.065822   -0.000002
  26 H :    0.051906   -0.000003
  27 H :    0.058839   -0.000002
  28 H :    0.058797   -0.000001
  29 H :    0.060899   -0.000005
  30 H :    0.066442   -0.000003
  31 C :   -0.282650    0.000051
  32 C :   -0.286237    0.000029
  33 C :   -0.176375    0.000006
  34 H :    0.062417   -0.000001
  35 H :    0.054607    0.000007
  36 H :    0.060248    0.000004
  37 H :    0.057916    0.000002
  38 H :    0.052917    0.000009
  39 H :    0.062034   -0.000000

  Mayer bond orders larger than 0.100000
B(  0-V ,  1-S ) :   0.7699 B(  0-V ,  2-S ) :   0.7732 B(  0-V ,  3-S ) :   0.7615
B(  0-V ,  4-S ) :   0.7802 B(  0-V ,  5-O ) :   2.1495 B(  1-S ,  8-C ) :   1.1010
B(  2-S ,  6-C ) :   1.1030 B(  3-S ,  9-C ) :   1.1168 B(  4-S ,  7-C ) :   1.1059
B(  6-C ,  7-C ) :   1.6841 B(  6-C , 10-S ) :   0.9334 B(  7-C , 11-S ) :   0.9407
B(  8-C ,  9-C ) :   1.6893 B(  8-C , 13-S ) :   0.9282 B(  9-C , 12-S ) :   0.9431
B( 10-S , 14-C ) :   1.2256 B( 11-S , 14-C ) :   1.2719 B( 12-S , 15-C ) :   1.3807
B( 13-S , 15-C ) :   1.1367 B( 14-C , 16-C ) :   1.4507 B( 15-C , 17-C ) :   1.4425
B( 16-C , 18-S ) :   1.0527 B( 16-C , 19-S ) :   1.1271 B( 17-C , 20-S ) :   0.9075
B( 17-C , 21-S ) :   1.3219 B( 18-S , 32-C ) :   0.9939 B( 19-S , 31-C ) :   0.9879
B( 20-S , 23-C ) :   0.9977 B( 21-S , 22-C ) :   0.9435 B( 22-C , 24-C ) :   0.9247
B( 22-C , 25-H ) :   0.9383 B( 22-C , 26-H ) :   0.9757 B( 23-C , 24-C ) :   0.9013
B( 23-C , 29-H ) :   0.9513 B( 23-C , 30-H ) :   0.9860 B( 24-C , 27-H ) :   0.9654
B( 24-C , 28-H ) :   0.9710 B( 31-C , 33-C ) :   0.9161 B( 31-C , 38-H ) :   0.9683
B( 31-C , 39-H ) :   0.9606 B( 32-C , 33-C ) :   0.9105 B( 32-C , 34-H ) :   0.9705
B( 32-C , 35-H ) :   0.9628 B( 33-C , 36-H ) :   0.9720 B( 33-C , 37-H ) :   0.9626

FINAL SINGLE POINT ENERGY     -6337.649310020317

DIPOLE MOMENT
-------------
                                X             Y             Z
Electronic contribution:      8.60920      -9.15276      -5.31725
Nuclear contribution   :     -9.91292       9.88513       5.86551
                        -----------------------------------------
Total Dipole Moment    :     -1.30373       0.73237       0.54826
                        -----------------------------------------
Magnitude (a.u.)       :      1.59269
Magnitude (Debye)      :      4.04830

Rotational constants in cm-1:     0.010755     0.000804     0.000783
Rotational constants in MHz :   322.426649    24.115629    23.485812

                             ****ORCA TERMINATED NORMALLY****
TOTAL RUN TIME: 0 days 1 hours 1 minutes 59 seconds 959 msec
