                         Program Version 5.0.4 -  RELEASE  -
|  1> ! nofrozencore ReducedPop printbasis
|  2> ! B3LYP TZVP
|  3>
|  4> %basis
|  5> newgto V "CP(PPP)" end
|  6> end
|  7>
|  8> %pal
|  9> nprocs 6
| 10> end
| 11>
| 12> % sym SymThresh 1e-2 end
| 13> * xyz -2 2
| 14> V -0.2896014817381244 0.3795026013352954 0.9979987732236081
| 15> S -1.5255166062484136 1.9991365764213325 -0.44683092409290237
| 16> S -2.0894223295774594 -1.2660582918907861 0.35094600813185933
| 17> S 1.7726740015664748 1.685916756551246 0.4664948598709627
| 18> S 1.3087229348531353 -1.5453935785390178 1.1908346437158124
| 19> O -0.661018480540217 0.8283491468604548 2.4723079455209174
| 20> C -1.1615975600205903 -2.777226984865313 0.6201026207283247
| 21> C 0.14268678309571087 -2.8837037757948876 0.9392561380268472
| 22> C -0.16291927680263427 2.982728209846983 -1.0924138709953835
| 23> C 1.128395128916768 2.8569526346188012 -0.7347876319642311
| 24> S -2.1990177584994557 -4.220175068464966 1.0493220631096756
| 25> S 0.6466184318326209 -4.451778799698204 1.726300698001641
| 26> S 2.1660969962776626 4.3532118137011215 -0.9456033635916692
| 27> S -0.6538246041001553 4.635935237786736 -1.7201541610258417
| 28> C -0.8964246030163693 -5.291005257045376 1.570719963778119
| 29> C 0.9714419253801879 5.331215292688706 -1.8068465007533712
| 30> C -1.0460816131770214 -6.637820974942067 1.7558114822580193
| 31> C 1.2844881068536178 6.448371231962969 -2.535522022667718
| 32> S -2.61949678987218 -7.450652695774932 1.5859601956269544
| 33> S 0.3149467890527223 -7.686690077005456 2.217096843388949
| 34> S 0.04241130162713072 7.360947014201695 -3.4384693023738713
| 35> S 2.959139868050156 7.062400611365988 -2.6537648431570626
| 36> C 3.1887773466916944 6.91547239794136 -4.486029212862756
| 37> C 0.7316001239831569 7.17857334353528 -5.148266068677156
| 38> C 2.1601757349473645 7.703550135990934 -5.298163239164841
| 39> H 3.1610738780446788 5.855341542796524 -4.748406766858523
| 40> H 4.1980591779733905 7.288556789318008 -4.6774115220028225
| 41> H 2.4393964680281637 7.645794443553532 -6.35971369803851
| 42> H 2.1957333981468947 8.758404725626255 -5.007915511071945
| 43> H 0.04739910619692932 7.738931590932905 -5.790246996898356
| 44> H 0.6755764105625 6.123977095085651 -5.427675888015219
| 45> C -0.29963947988307305 -8.190049351493471 3.8885632030284354
| 46> C -2.820511620146127 -7.9819514130187965 3.348109669387328
| 47> C -1.6765380757582358 -8.860205156829652 3.864377573571602
| 48> H -2.9284133862345487 -7.083219175202549 3.959755485042761
| 49> H -3.7627940685358703 -8.534904468417706 3.3845211185570623
| 50> H -1.6222947643058214 -9.771091007681683 3.2589393385440752
| 51> H -1.9220758912722544 -9.166266020797304 4.8914676770965935
| 52> H 0.4481792210273138 -8.883504243790844 4.282068129089779
| 53> H -0.30906655534734506 -7.301513014018955 4.52408605794127
| 54> *
| 55>
| 56> % eprnmr
| 57> gtensor true
| 58> Nuclei = all H {aiso,adip,aorb,fgrad,rho}
| 59> Nuclei = all V {aiso,adip,aorb,fgrad,rho}
| 60> end
| 61>
| 62>                          ****END OF INPUT****

CARTESIAN COORDINATES (ANGSTROEM)
---------------------------------
  V     -0.289302    0.376359    0.995824
  S     -1.525218    1.995993   -0.449006
  S     -2.089123   -1.269202    0.348771
  S      1.772973    1.682774    0.464320
  S      1.309022   -1.548537    1.188660
  O     -0.660719    0.825206    2.470133
  C     -1.161299   -2.780370    0.617928
  C      0.142986   -2.886847    0.937082
  C     -0.162620    2.979585   -1.094588
  C      1.128694    2.853809   -0.736962
  S     -2.198719   -4.223318    1.047147
  S      0.646917   -4.454922    1.724126
  S      2.166396    4.350069   -0.947778
  S     -0.653526    4.632792   -1.722329
  C     -0.896126   -5.294148    1.568545
  C      0.971741    5.328072   -1.809021
  C     -1.045783   -6.640964    1.753637
  C      1.284787    6.445228   -2.537697
  S     -2.619198   -7.453796    1.583786
  S      0.315246   -7.689833    2.214922
  S      0.042710    7.357804   -3.440644
  S      2.959439    7.059257   -2.655939
  C      3.189076    6.912329   -4.488204
  C      0.731899    7.175430   -5.150441
  C      2.160475    7.700407   -5.300338
  H      3.161373    5.852198   -4.750581
  H      4.198358    7.285414   -4.679586
  H      2.439695    7.642651   -6.361888
  H      2.196032    8.755261   -5.010090
  H      0.047698    7.735788   -5.792422
  H      0.675875    6.120834   -5.429850
  C     -0.299340   -8.193193    3.886389
  C     -2.820213   -7.985095    3.345935
  C     -1.676239   -8.863348    3.862203
  H     -2.928114   -7.086362    3.957581
  H     -3.762495   -8.538048    3.382347
  H     -1.621996   -9.774234    3.256765
  H     -1.921777   -9.169409    4.889293
  H      0.448478   -8.886647    4.279894
  H     -0.308768   -7.304656    4.521911

 Total Charge           Charge          ....   -2
 Multiplicity           Mult            ....    2
 Number of Electrons    NEL             ....  321
 Basis Dimension        Dim             ....  681

ORBITAL ENERGIES
----------------
                 SPIN UP ORBITALS
  NO   OCC          E(Eh)            E(eV)
   0   1.0000    -196.681269     -5351.9694
   1   1.0000     -88.733931     -2414.5730
   2   1.0000     -88.733851     -2414.5708
   3   1.0000     -88.732199     -2414.5259
   4   1.0000     -88.732196     -2414.5258
   5   1.0000     -88.728132     -2414.4152
   6   1.0000     -88.728031     -2414.4125
   7   1.0000     -88.727686     -2414.4031
   8   1.0000     -88.727628     -2414.4015
   9   1.0000     -88.642727     -2412.0912
  10   1.0000     -88.642622     -2412.0884
  11   1.0000     -88.642357     -2412.0812
  12   1.0000     -88.642226     -2412.0776
  13   1.0000     -22.055987      -600.1739
  14   1.0000     -18.897192      -514.2187
  15   1.0000     -18.562533      -505.1122
  16   1.0000     -18.557211      -504.9674
  17   1.0000     -18.557163      -504.9661
  18   1.0000     -10.074992      -274.1545
  19   1.0000     -10.074269      -274.1348
  20   1.0000     -10.064214      -273.8612
  21   1.0000     -10.064207      -273.8610
  22   1.0000     -10.063182      -273.8331
  23   1.0000     -10.063088      -273.8305
  24   1.0000     -10.052487      -273.5421
  25   1.0000     -10.051860      -273.5250
  26   1.0000     -10.051062      -273.5033
  27   1.0000     -10.048117      -273.4232
  28   1.0000     -10.025206      -272.7997
  29   1.0000     -10.024414      -272.7782
  30   1.0000     -10.024375      -272.7771
  31   1.0000     -10.023428      -272.7513
  32   1.0000      -7.787333      -211.9041
  33   1.0000      -7.787276      -211.9026
  34   1.0000      -7.785781      -211.8619
  35   1.0000      -7.785771      -211.8616
  36   1.0000      -7.780867      -211.7281
  37   1.0000      -7.780846      -211.7276
  38   1.0000      -7.780677      -211.7230
  39   1.0000      -7.780658      -211.7225
  40   1.0000      -7.696063      -209.4205
  41   1.0000      -7.695983      -209.4183
  42   1.0000      -7.695779      -209.4128
  43   1.0000      -7.695542      -209.4063
  44   1.0000      -5.752378      -156.5302
  45   1.0000      -5.752328      -156.5288
  46   1.0000      -5.750737      -156.4855
  47   1.0000      -5.750734      -156.4854
  48   1.0000      -5.748882      -156.4350
  49   1.0000      -5.748809      -156.4330
  50   1.0000      -5.747404      -156.3948
  51   1.0000      -5.747395      -156.3946
  52   1.0000      -5.745911      -156.3542
  53   1.0000      -5.745891      -156.3536
  54   1.0000      -5.745706      -156.3486
  55   1.0000      -5.745700      -156.3485
  56   1.0000      -5.742087      -156.2501
  57   1.0000      -5.742034      -156.2487
  58   1.0000      -5.741539      -156.2352
  59   1.0000      -5.741504      -156.2343
  60   1.0000      -5.741280      -156.2282
  61   1.0000      -5.741271      -156.2279
  62   1.0000      -5.740527      -156.2077
  63   1.0000      -5.740525      -156.2076
  64   1.0000      -5.736513      -156.0985
  65   1.0000      -5.736505      -156.0982
  66   1.0000      -5.736358      -156.0942
  67   1.0000      -5.736328      -156.0934
  68   1.0000      -5.661711      -154.0630
  69   1.0000      -5.661568      -154.0591
  70   1.0000      -5.661416      -154.0550
  71   1.0000      -5.661141      -154.0475
  72   1.0000      -5.654780      -153.8744
  73   1.0000      -5.654692      -153.8720
  74   1.0000      -5.654523      -153.8674
  75   1.0000      -5.654269      -153.8605
  76   1.0000      -5.653165      -153.8304
  77   1.0000      -5.653129      -153.8295
  78   1.0000      -5.652873      -153.8225
  79   1.0000      -5.652654      -153.8165
  80   1.0000      -2.449444       -66.6528
  81   1.0000      -1.491649       -40.5898
  82   1.0000      -1.478785       -40.2398
  83   1.0000      -1.477381       -40.2016
  84   1.0000      -0.708177       -19.2705
  85   1.0000      -0.707570       -19.2540
  86   1.0000      -0.682313       -18.5667
  87   1.0000      -0.682259       -18.5652
  88   1.0000      -0.655930       -17.8488
  89   1.0000      -0.629140       -17.1198
  90   1.0000      -0.628798       -17.1105
  91   1.0000      -0.617321       -16.7982
  92   1.0000      -0.616936       -16.7877
  93   1.0000      -0.570749       -15.5309
  94   1.0000      -0.569959       -15.5094
  95   1.0000      -0.567938       -15.4544
  96   1.0000      -0.566014       -15.4020
  97   1.0000      -0.494886       -13.4665
  98   1.0000      -0.494459       -13.4549
  99   1.0000      -0.493676       -13.4336
 100   1.0000      -0.491659       -13.3787
 101   1.0000      -0.475739       -12.9455
 102   1.0000      -0.472581       -12.8596
 103   1.0000      -0.446266       -12.1435
 104   1.0000      -0.443606       -12.0711
 105   1.0000      -0.419637       -11.4189
 106   1.0000      -0.414670       -11.2837
 107   1.0000      -0.355503        -9.6737
 108   1.0000      -0.353944        -9.6313
 109   1.0000      -0.326731        -8.8908
 110   1.0000      -0.324683        -8.8351
 111   1.0000      -0.314973        -8.5709
 112   1.0000      -0.310699        -8.4546
 113   1.0000      -0.302360        -8.2276
 114   1.0000      -0.301474        -8.2035
 115   1.0000      -0.292491        -7.9591
 116   1.0000      -0.292031        -7.9466
 117   1.0000      -0.257837        -7.0161
 118   1.0000      -0.257151        -6.9974
 119   1.0000      -0.255915        -6.9638
 120   1.0000      -0.255327        -6.9478
 121   1.0000      -0.235557        -6.4098
 122   1.0000      -0.233164        -6.3447
 123   1.0000      -0.231554        -6.3009
 124   1.0000      -0.229741        -6.2516
 125   1.0000      -0.220962        -6.0127
 126   1.0000      -0.215363        -5.8603
 127   1.0000      -0.212535        -5.7834
 128   1.0000      -0.204392        -5.5618
 129   1.0000      -0.191897        -5.2218
 130   1.0000      -0.183143        -4.9836
 131   1.0000      -0.182988        -4.9794
 132   1.0000      -0.181517        -4.9393
 133   1.0000      -0.179401        -4.8817
 134   1.0000      -0.159899        -4.3511
 135   1.0000      -0.149633        -4.0717
 136   1.0000      -0.146478        -3.9859
 137   1.0000      -0.136722        -3.7204
 138   1.0000      -0.133106        -3.6220
 139   1.0000      -0.128612        -3.4997
 140   1.0000      -0.127211        -3.4616
 141   1.0000      -0.119077        -3.2403
 142   1.0000      -0.115572        -3.1449
 143   1.0000      -0.114113        -3.1052
 144   1.0000      -0.098631        -2.6839
 145   1.0000      -0.095155        -2.5893
 146   1.0000      -0.094033        -2.5588
 147   1.0000      -0.093259        -2.5377
 148   1.0000      -0.071951        -1.9579
 149   1.0000      -0.066309        -1.8043
 150   1.0000      -0.065720        -1.7883
 151   1.0000      -0.052338        -1.4242
 152   1.0000      -0.044146        -1.2013
 153   1.0000      -0.040925        -1.1136
 154   1.0000      -0.037921        -1.0319
 155   1.0000      -0.027240        -0.7412
 156   1.0000      -0.023979        -0.6525
 157   1.0000      -0.021791        -0.5930
 158   1.0000      -0.012282        -0.3342
 159   1.0000       0.014595         0.3971
 160   1.0000       0.034967         0.9515
 161   0.0000       0.134203         3.6519
 162   0.0000       0.136506         3.7145
 163   0.0000       0.160532         4.3683
 164   0.0000       0.161138         4.3848
 165   0.0000       0.163380         4.4458

                 SPIN DOWN ORBITALS
  NO   OCC          E(Eh)            E(eV)
   0   1.0000    -196.681414     -5351.9734
   1   1.0000     -88.733931     -2414.5730
   2   1.0000     -88.733852     -2414.5709
   3   1.0000     -88.732200     -2414.5259
   4   1.0000     -88.732196     -2414.5258
   5   1.0000     -88.728139     -2414.4154
   6   1.0000     -88.728038     -2414.4127
   7   1.0000     -88.727689     -2414.4032
   8   1.0000     -88.727632     -2414.4016
   9   1.0000     -88.642856     -2412.0947
  10   1.0000     -88.642783     -2412.0928
  11   1.0000     -88.642489     -2412.0847
  12   1.0000     -88.642386     -2412.0820
  13   1.0000     -22.040825      -599.7613
  14   1.0000     -18.901132      -514.3260
  15   1.0000     -18.557129      -504.9651
  16   1.0000     -18.541236      -504.5327
  17   1.0000     -18.540542      -504.5138
  18   1.0000     -10.074986      -274.1543
  19   1.0000     -10.074268      -274.1348
  20   1.0000     -10.064213      -273.8612
  21   1.0000     -10.064206      -273.8610
  22   1.0000     -10.063182      -273.8331
  23   1.0000     -10.063088      -273.8305
  24   1.0000     -10.052477      -273.5418
  25   1.0000     -10.051860      -273.5250
  26   1.0000     -10.051062      -273.5033
  27   1.0000     -10.048112      -273.4230
  28   1.0000     -10.025006      -272.7943
  29   1.0000     -10.024215      -272.7728
  30   1.0000     -10.024164      -272.7714
  31   1.0000     -10.023224      -272.7458
  32   1.0000      -7.787334      -211.9041
  33   1.0000      -7.787277      -211.9026
  34   1.0000      -7.785781      -211.8619
  35   1.0000      -7.785771      -211.8616
  36   1.0000      -7.780875      -211.7284
  37   1.0000      -7.780854      -211.7278
  38   1.0000      -7.780681      -211.7231
  39   1.0000      -7.780663      -211.7226
  40   1.0000      -7.696183      -209.4238
  41   1.0000      -7.696134      -209.4224
  42   1.0000      -7.695901      -209.4161
  43   1.0000      -7.695692      -209.4104
  44   1.0000      -5.752379      -156.5302
  45   1.0000      -5.752329      -156.5288
  46   1.0000      -5.750738      -156.4855
  47   1.0000      -5.750735      -156.4855
  48   1.0000      -5.748883      -156.4351
  49   1.0000      -5.748810      -156.4331
  50   1.0000      -5.747405      -156.3948
  51   1.0000      -5.747395      -156.3946
  52   1.0000      -5.745921      -156.3545
  53   1.0000      -5.745901      -156.3539
  54   1.0000      -5.745710      -156.3487
  55   1.0000      -5.745705      -156.3486
  56   1.0000      -5.742087      -156.2501
  57   1.0000      -5.742035      -156.2487
  58   1.0000      -5.741551      -156.2355
  59   1.0000      -5.741516      -156.2346
  60   1.0000      -5.741288      -156.2284
  61   1.0000      -5.741279      -156.2281
  62   1.0000      -5.740527      -156.2077
  63   1.0000      -5.740526      -156.2076
  64   1.0000      -5.736519      -156.0986
  65   1.0000      -5.736511      -156.0984
  66   1.0000      -5.736358      -156.0942
  67   1.0000      -5.736327      -156.0934
  68   1.0000      -5.661844      -154.0666
  69   1.0000      -5.661717      -154.0632
  70   1.0000      -5.661551      -154.0586
  71   1.0000      -5.661290      -154.0515
  72   1.0000      -5.655166      -153.8849
  73   1.0000      -5.655117      -153.8836
  74   1.0000      -5.654915      -153.8781
  75   1.0000      -5.654692      -153.8720
  76   1.0000      -5.653255      -153.8329
  77   1.0000      -5.653212      -153.8317
  78   1.0000      -5.652923      -153.8239
  79   1.0000      -5.652778      -153.8199
  80   1.0000      -2.403960       -65.4151
  81   1.0000      -1.471875       -40.0518
  82   1.0000      -1.415826       -38.5266
  83   1.0000      -1.414818       -38.4991
  84   1.0000      -0.708161       -19.2700
  85   1.0000      -0.707557       -19.2536
  86   1.0000      -0.682269       -18.5655
  87   1.0000      -0.682209       -18.5638
  88   1.0000      -0.664401       -18.0793
  89   1.0000      -0.629077       -17.1180
  90   1.0000      -0.628725       -17.1085
  91   1.0000      -0.617322       -16.7982
  92   1.0000      -0.616938       -16.7877
  93   1.0000      -0.570676       -15.5289
  94   1.0000      -0.569884       -15.5073
  95   1.0000      -0.567918       -15.4538
  96   1.0000      -0.565997       -15.4016
  97   1.0000      -0.494924       -13.4676
  98   1.0000      -0.494498       -13.4560
  99   1.0000      -0.493696       -13.4341
 100   1.0000      -0.491693       -13.3796
 101   1.0000      -0.476022       -12.9532
 102   1.0000      -0.472885       -12.8679
 103   1.0000      -0.446313       -12.1448
 104   1.0000      -0.443688       -12.0734
 105   1.0000      -0.419679       -11.4201
 106   1.0000      -0.414845       -11.2885
 107   1.0000      -0.355498        -9.6736
 108   1.0000      -0.353938        -9.6311
 109   1.0000      -0.326721        -8.8905
 110   1.0000      -0.324676        -8.8349
 111   1.0000      -0.314929        -8.5696
 112   1.0000      -0.310728        -8.4553
 113   1.0000      -0.302314        -8.2264
 114   1.0000      -0.301450        -8.2029
 115   1.0000      -0.292484        -7.9589
 116   1.0000      -0.292030        -7.9466
 117   1.0000      -0.257771        -7.0143
 118   1.0000      -0.257033        -6.9942
 119   1.0000      -0.255883        -6.9629
 120   1.0000      -0.255305        -6.9472
 121   1.0000      -0.235503        -6.4084
 122   1.0000      -0.233159        -6.3446
 123   1.0000      -0.231515        -6.2998
 124   1.0000      -0.229716        -6.2509
 125   1.0000      -0.220767        -6.0074
 126   1.0000      -0.215133        -5.8541
 127   1.0000      -0.212440        -5.7808
 128   1.0000      -0.204286        -5.5589
 129   1.0000      -0.190442        -5.1822
 130   1.0000      -0.182991        -4.9794
 131   1.0000      -0.182738        -4.9725
 132   1.0000      -0.180848        -4.9211
 133   1.0000      -0.179306        -4.8792
 134   1.0000      -0.159510        -4.3405
 135   1.0000      -0.149568        -4.0699
 136   1.0000      -0.146419        -3.9843
 137   1.0000      -0.135509        -3.6874
 138   1.0000      -0.132767        -3.6128
 139   1.0000      -0.128766        -3.5039
 140   1.0000      -0.127361        -3.4657
 141   1.0000      -0.120532        -3.2798
 142   1.0000      -0.116245        -3.1632
 143   1.0000      -0.115573        -3.1449
 144   1.0000      -0.098343        -2.6760
 145   1.0000      -0.095036        -2.5861
 146   1.0000      -0.094060        -2.5595
 147   1.0000      -0.093441        -2.5426
 148   1.0000      -0.069670        -1.8958
 149   1.0000      -0.066335        -1.8051
 150   1.0000      -0.065717        -1.7882
 151   1.0000      -0.049801        -1.3552
 152   1.0000      -0.042996        -1.1700
 153   1.0000      -0.040940        -1.1140
 154   1.0000      -0.036038        -0.9806
 155   1.0000      -0.027482        -0.7478
 156   1.0000      -0.024396        -0.6638
 157   1.0000      -0.012459        -0.3390
 158   1.0000       0.014731         0.4009
 159   1.0000       0.033831         0.9206
 160   0.0000       0.134138         3.6501
 161   0.0000       0.136406         3.7118
 162   0.0000       0.154779         4.2117
 163   0.0000       0.160946         4.3796
 164   0.0000       0.161931         4.4064

MULLIKEN ATOMIC CHARGES AND SPIN POPULATIONS
--------------------------------------------
   0 V :    0.499527    1.225440
   1 S :   -0.281828   -0.022564
   2 S :   -0.295245   -0.028551
   3 S :   -0.280971   -0.023115
   4 S :   -0.290310   -0.029096
   5 O :   -0.452315   -0.151964
   6 C :   -0.080972    0.008015
   7 C :   -0.089982    0.007475
   8 C :   -0.090529    0.007488
   9 C :   -0.093007    0.007341
  10 S :    0.090111   -0.000011
  11 S :    0.092313   -0.000034
  12 S :    0.088373   -0.000683
  13 S :    0.086683   -0.000680
  14 C :   -0.220278    0.000011
  15 C :   -0.196891    0.001112
  16 C :   -0.189346    0.000179
  17 C :   -0.197710   -0.000136
  18 S :    0.012690   -0.000054
  19 S :    0.013380   -0.000055
  20 S :    0.007742   -0.000089
  21 S :    0.007743   -0.000088
  22 C :   -0.300672    0.000037
  23 C :   -0.299422    0.000037
  24 C :   -0.163894   -0.000048
  25 H :    0.144743   -0.000001
  26 H :    0.116116    0.000003
  27 H :    0.085479    0.000003
  28 H :    0.094144    0.000006
  29 H :    0.115427    0.000003
  30 H :    0.143878   -0.000000
  31 C :   -0.293462    0.000023
  32 C :   -0.294766    0.000022
  33 C :   -0.168242   -0.000021
  34 H :    0.141209   -0.000005
  35 H :    0.113096    0.000000
  36 H :    0.091665   -0.000003
  37 H :    0.081514    0.000004
  38 H :    0.112980    0.000002
  39 H :    0.141030   -0.000005
Sum of atomic charges         :   -2.0000000

LOEWDIN ATOMIC CHARGES AND SPIN POPULATIONS
-------------------------------------------
   0 V :   -0.120542    1.177736
   1 S :    0.061763   -0.014737
   2 S :    0.048736   -0.019850
   3 S :    0.063276   -0.015218
   4 S :    0.053342   -0.020103
   5 O :   -0.306152   -0.136747
   6 C :   -0.523947    0.008346
   7 C :   -0.526458    0.007795
   8 C :   -0.520638    0.007614
   9 C :   -0.521206    0.007382
  10 S :    0.455308   -0.000402
  11 S :    0.457374   -0.000455
  12 S :    0.452482   -0.000822
  13 S :    0.450457   -0.000820
  14 C :   -0.470859   -0.000039
  15 C :   -0.473770    0.000113
  16 C :   -0.620940    0.000083
  17 C :   -0.611049    0.000372
  18 S :    0.360161   -0.000058
  19 S :    0.361429   -0.000056
  20 S :    0.357965   -0.000081
  21 S :    0.357199   -0.000080
  22 C :   -0.282449    0.000016
  23 C :   -0.282632    0.000015
  24 C :   -0.175853    0.000002
  25 H :    0.063207   -0.000001
  26 H :    0.054428    0.000002
  27 H :    0.058067   -0.000000
  28 H :    0.060703    0.000001
  29 H :    0.054357    0.000002
  30 H :    0.062855   -0.000001
  31 C :   -0.284498   -0.000002
  32 C :   -0.284211   -0.000005
  33 C :   -0.176379    0.000003
  34 H :    0.061688   -0.000002
  35 H :    0.053580   -0.000001
  36 H :    0.060030   -0.000001
  37 H :    0.058009   -0.000001
  38 H :    0.053627   -0.000000
  39 H :    0.061540   -0.000002

  Mayer bond orders larger than 0.100000
B(  0-V ,  1-S ) :   0.7651 B(  0-V ,  2-S ) :   0.7468 B(  0-V ,  3-S ) :   0.7597
B(  0-V ,  4-S ) :   0.7580 B(  0-V ,  5-O ) :   2.1619 B(  1-S ,  8-C ) :   1.1053
B(  2-S ,  6-C ) :   1.1044 B(  3-S ,  9-C ) :   1.1091 B(  4-S ,  7-C ) :   1.1031
B(  6-C ,  7-C ) :   1.7295 B(  6-C , 10-S ) :   0.9208 B(  7-C , 11-S ) :   0.9247
B(  8-C ,  9-C ) :   1.7265 B(  8-C , 13-S ) :   0.9275 B(  9-C , 12-S ) :   0.9296
B( 10-S , 14-C ) :   1.2307 B( 11-S , 14-C ) :   1.2327 B( 12-S , 15-C ) :   1.2184
B( 13-S , 15-C ) :   1.2174 B( 14-C , 16-C ) :   1.4548 B( 15-C , 17-C ) :   1.4629
B( 16-C , 18-S ) :   1.0805 B( 16-C , 19-S ) :   1.0849 B( 17-C , 20-S ) :   1.0847
B( 17-C , 21-S ) :   1.0858 B( 18-S , 32-C ) :   0.9957 B( 19-S , 31-C ) :   0.9958
B( 20-S , 23-C ) :   0.9901 B( 21-S , 22-C ) :   0.9889 B( 22-C , 24-C ) :   0.9106
B( 22-C , 25-H ) :   0.9652 B( 22-C , 26-H ) :   0.9666 B( 23-C , 24-C ) :   0.9114
B( 23-C , 29-H ) :   0.9667 B( 23-C , 30-H ) :   0.9649 B( 24-C , 27-H ) :   0.9628
B( 24-C , 28-H ) :   0.9720 B( 31-C , 33-C ) :   0.9138 B( 31-C , 38-H ) :   0.9649
B( 31-C , 39-H ) :   0.9662 B( 32-C , 33-C ) :   0.9135 B( 32-C , 34-H ) :   0.9661
B( 32-C , 35-H ) :   0.9649 B( 33-C , 36-H ) :   0.9723 B( 33-C , 37-H ) :   0.9613

FINAL SINGLE POINT ENERGY     -6337.681048083276

DIPOLE MOMENT
-------------
                                X             Y             Z
Electronic contribution:     -3.38722       7.90516      10.65853
Nuclear contribution   :      3.78627      -8.65236     -11.80738
                        -----------------------------------------
Total Dipole Moment    :      0.39905      -0.74721      -1.14885
                        -----------------------------------------
Magnitude (a.u.)       :      1.42738
Magnitude (Debye)      :      3.62811

Rotational constants in cm-1:     0.010580     0.000804     0.000783
Rotational constants in MHz :   317.191050    24.109738    23.463095

                             ****ORCA TERMINATED NORMALLY****
TOTAL RUN TIME: 0 days 1 hours 6 minutes 32 seconds 59 msec
