                         Program Version 5.0.4 -  RELEASE  -
|  1> ! nofrozencore ReducedPop printbasis
|  2> ! B3LYP TZVP
|  3>
|  4> %basis
|  5> newgto V "CP(PPP)" end
|  6> end
|  7>
|  8> %pal
|  9> nprocs 8
| 10> end
| 11>
| 12> % sym SymThresh 1e-2 end
| 13> * xyz -2 2
| 14> V -0.31051958481340797 -0.016046808724508234 1.0697655865964597
| 15> S 1.5320093834763067 -1.450048722623494 1.1154785983139794
| 16> S 1.458741582932553 1.909546486270342 0.7583381943842868
| 17> S -1.6107141827745297 -2.010526535907029 -0.022355345684235393
| 18> S -1.69611544998174 1.2829526117879766 -0.26982381008845363
| 19> O -0.8175891201252609 0.12157559572121482 2.56908748282962
| 20> C 0.2925585842064472 3.106180395025538 0.2694926225393038
| 21> C -0.9722465265124725 2.9143940286252104 -0.15439015521447674
| 22> C 0.8818503828224358 -3.056275871777755 0.6661449322978049
| 23> C -0.37541924171872515 -3.214721709105645 0.2102139440599002
| 24> S 0.9403494438469356 4.747404707535882 0.30975742753307245
| 25> S -1.800946912258103 4.437887688337281 -0.7243351884959027
| 26> S -0.9256530017799588 -4.823871385815056 -0.2557419370370926
| 27> S 1.8530380353950318 -4.606942180678418 0.6973175382351294
| 28> C -0.4380248724884717 5.559310798750561 -0.352787270736712
| 29> C 0.5606113938031168 -5.666553026126158 0.011538031747824196
| 30> C -0.45639649392961545 6.911974229269336 -0.5598758297152405
| 31> C 0.6991911305559443 -6.999757302436717 -0.2657262603540489
| 32> S 0.8641482600836926 8.103683287559049 -0.2086976939391364
| 33> S -1.9276910139928045 7.569650280653649 -1.2489413053324472
| 34> S 2.2796536173659194 -7.688470310634589 0.05101925055252587
| 35> S -0.5505434669776036 -8.129244484220369 -0.9434809399654018
| 36> C 0.3129378936636728 -8.448709029684919 -2.55575480884197
| 37> C 2.720136654123561 -8.268934572969792 -1.6535179649632907
| 38> C 1.6643177237766678 -9.134892207361167 -2.3498354775690236
| 39> H 0.4238498863534691 -7.4901399953717105 -3.0730201425145642
| 40> H -0.3594708656922399 -9.083697893461315 -3.1438333977128825
| 41> H 2.0673542899197765 -9.419971034667043 -3.332436123025497
| 42> H 1.5088556369826145 -10.057747804119458 -1.7811297528470535
| 43> H 3.645592847208451 -8.842454560218876 -1.5241090323595627
| 44> H 2.947523678157089 -7.388775036554255 -2.2673053850094806
| 45> C -2.414035610045054 8.7438570701951 0.09927329360703063
| 46> C -0.05411835890505267 9.045973383408842 1.100800944627687
| 47> C -1.3173616278012605 9.713397739074576 0.5536727507813053
| 48> H -0.2884229521021384 8.350133032267571 1.9121065214385087
| 49> H 0.644182005363527 9.798949149361144 1.4818756973192189
| 50> H -1.0379546248458327 10.369944302162589 -0.2772555402509512
| 51> H -1.7455511739692788 10.348999894773353 1.3423668738584935
| 52> H -3.262432396286539 9.306457245735663 -0.30864010847464485
| 53> H -2.773718271081367 8.154999554067299 0.951948446465747
| 54> *
| 55>
| 56> % eprnmr
| 57> gtensor true
| 58> Nuclei = all H {aiso,adip,aorb,fgrad,rho}
| 59> Nuclei = all V {aiso,adip,aorb,fgrad,rho}
| 60> end
| 61>
| 62>                          ****END OF INPUT****

CARTESIAN COORDINATES (ANGSTROEM)
---------------------------------
  V     -0.309715   -0.013813    1.066756
  S      1.532814   -1.447814    1.112469
  S      1.459546    1.911781    0.755328
  S     -1.609909   -2.008292   -0.025365
  S     -1.695311    1.285187   -0.272834
  O     -0.816784    0.123810    2.566078
  C      0.293363    3.108415    0.266483
  C     -0.971442    2.916628   -0.157400
  C      0.882655   -3.054042    0.663135
  C     -0.374614   -3.212487    0.207204
  S      0.941154    4.749639    0.306748
  S     -1.800142    4.440122   -0.727345
  S     -0.924848   -4.821637   -0.258752
  S      1.853843   -4.604708    0.694308
  C     -0.437220    5.561545   -0.355797
  C      0.561416   -5.664319    0.008528
  C     -0.455592    6.914209   -0.562886
  C      0.699996   -6.997523   -0.268736
  S      0.864953    8.105918   -0.211708
  S     -1.926886    7.571885   -1.251951
  S      2.280458   -7.686236    0.048009
  S     -0.549739   -8.127010   -0.946491
  C      0.313743   -8.446475   -2.558765
  C      2.720941   -8.266700   -1.656528
  C      1.665122   -9.132658   -2.352845
  H      0.424655   -7.487906   -3.076030
  H     -0.358666   -9.081464   -3.146843
  H      2.068159   -9.417737   -3.335446
  H      1.509660  -10.055514   -1.784140
  H      3.646398   -8.840220   -1.527119
  H      2.948328   -7.386541   -2.270315
  C     -2.413231    8.746091    0.096263
  C     -0.053314    9.048208    1.097791
  C     -1.316557    9.715632    0.550663
  H     -0.287618    8.352367    1.909097
  H      0.644987    9.801183    1.478866
  H     -1.037150   10.372179   -0.280265
  H     -1.744746   10.351234    1.339357
  H     -3.261628    9.308692   -0.311650
  H     -2.772914    8.157234    0.948939

 Total Charge           Charge          ....   -2
 Multiplicity           Mult            ....    2
 Number of Electrons    NEL             ....  321
 Basis Dimension        Dim             ....  681

ORBITAL ENERGIES
----------------
                 SPIN UP ORBITALS
  NO   OCC          E(Eh)            E(eV)
   0   1.0000    -196.673098     -5351.7471
   1   1.0000     -88.738379     -2414.6941
   2   1.0000     -88.737989     -2414.6834
   3   1.0000     -88.733787     -2414.5691
   4   1.0000     -88.733242     -2414.5543
   5   1.0000     -88.728560     -2414.4269
   6   1.0000     -88.728503     -2414.4253
   7   1.0000     -88.725954     -2414.3560
   8   1.0000     -88.725862     -2414.3534
   9   1.0000     -88.641876     -2412.0681
  10   1.0000     -88.641651     -2412.0619
  11   1.0000     -88.637203     -2411.9409
  12   1.0000     -88.636220     -2411.9142
  13   1.0000     -22.048600      -599.9729
  14   1.0000     -18.888966      -513.9949
  15   1.0000     -18.554929      -504.9053
  16   1.0000     -18.550001      -504.7712
  17   1.0000     -18.549755      -504.7645
  18   1.0000     -10.075242      -274.1613
  19   1.0000     -10.074877      -274.1513
  20   1.0000     -10.065606      -273.8991
  21   1.0000     -10.065501      -273.8962
  22   1.0000     -10.062372      -273.8111
  23   1.0000     -10.062327      -273.8098
  24   1.0000     -10.051579      -273.5174
  25   1.0000     -10.051431      -273.5133
  26   1.0000     -10.048421      -273.4314
  27   1.0000     -10.047905      -273.4174
  28   1.0000     -10.019324      -272.6397
  29   1.0000     -10.018634      -272.6209
  30   1.0000     -10.016446      -272.5614
  31   1.0000     -10.016177      -272.5540
  32   1.0000      -7.790966      -212.0030
  33   1.0000      -7.790603      -211.9931
  34   1.0000      -7.785490      -211.8540
  35   1.0000      -7.785065      -211.8424
  36   1.0000      -7.782766      -211.7798
  37   1.0000      -7.782695      -211.7779
  38   1.0000      -7.780809      -211.7266
  39   1.0000      -7.780785      -211.7259
  40   1.0000      -7.696448      -209.4310
  41   1.0000      -7.696098      -209.4215
  42   1.0000      -7.691499      -209.2963
  43   1.0000      -7.690436      -209.2674
  44   1.0000      -5.755970      -156.6279
  45   1.0000      -5.755603      -156.6179
  46   1.0000      -5.752790      -156.5414
  47   1.0000      -5.752421      -156.5313
  48   1.0000      -5.750655      -156.4833
  49   1.0000      -5.750211      -156.4712
  50   1.0000      -5.747763      -156.4046
  51   1.0000      -5.747689      -156.4026
  52   1.0000      -5.746268      -156.3639
  53   1.0000      -5.745813      -156.3515
  54   1.0000      -5.745666      -156.3475
  55   1.0000      -5.745609      -156.3460
  56   1.0000      -5.745580      -156.3452
  57   1.0000      -5.745311      -156.3379
  58   1.0000      -5.744126      -156.3056
  59   1.0000      -5.744062      -156.3039
  60   1.0000      -5.741122      -156.2239
  61   1.0000      -5.741021      -156.2211
  62   1.0000      -5.741019      -156.2211
  63   1.0000      -5.740726      -156.2131
  64   1.0000      -5.737606      -156.1282
  65   1.0000      -5.737539      -156.1264
  66   1.0000      -5.736739      -156.1046
  67   1.0000      -5.736728      -156.1043
  68   1.0000      -5.661971      -154.0701
  69   1.0000      -5.661675      -154.0620
  70   1.0000      -5.656608      -153.9241
  71   1.0000      -5.655559      -153.8956
  72   1.0000      -5.654761      -153.8739
  73   1.0000      -5.654486      -153.8664
  74   1.0000      -5.653779      -153.8471
  75   1.0000      -5.653375      -153.8361
  76   1.0000      -5.650436      -153.7562
  77   1.0000      -5.649388      -153.7277
  78   1.0000      -5.648755      -153.7104
  79   1.0000      -5.647661      -153.6807
  80   1.0000      -2.443043       -66.4786
  81   1.0000      -1.484105       -40.3845
  82   1.0000      -1.473337       -40.0915
  83   1.0000      -1.472193       -40.0604
  84   1.0000      -0.709724       -19.3126
  85   1.0000      -0.709615       -19.3096
  86   1.0000      -0.685436       -18.6517
  87   1.0000      -0.685308       -18.6482
  88   1.0000      -0.648951       -17.6589
  89   1.0000      -0.632130       -17.2011
  90   1.0000      -0.631967       -17.1967
  91   1.0000      -0.615668       -16.7532
  92   1.0000      -0.615471       -16.7478
  93   1.0000      -0.574814       -15.6415
  94   1.0000      -0.574589       -15.6354
  95   1.0000      -0.571497       -15.5512
  96   1.0000      -0.570909       -15.5352
  97   1.0000      -0.498260       -13.5583
  98   1.0000      -0.497607       -13.5406
  99   1.0000      -0.493929       -13.4405
 100   1.0000      -0.493371       -13.4253
 101   1.0000      -0.478005       -13.0072
 102   1.0000      -0.475721       -12.9450
 103   1.0000      -0.445680       -12.1276
 104   1.0000      -0.443411       -12.0658
 105   1.0000      -0.416587       -11.3359
 106   1.0000      -0.411288       -11.1917
 107   1.0000      -0.354507        -9.6466
 108   1.0000      -0.354474        -9.6457
 109   1.0000      -0.326254        -8.8778
 110   1.0000      -0.325903        -8.8683
 111   1.0000      -0.317913        -8.6509
 112   1.0000      -0.313970        -8.5436
 113   1.0000      -0.304492        -8.2857
 114   1.0000      -0.303860        -8.2685
 115   1.0000      -0.291298        -7.9266
 116   1.0000      -0.290993        -7.9183
 117   1.0000      -0.257958        -7.0194
 118   1.0000      -0.257386        -7.0038
 119   1.0000      -0.254987        -6.9385
 120   1.0000      -0.254845        -6.9347
 121   1.0000      -0.234230        -6.3737
 122   1.0000      -0.233686        -6.3589
 123   1.0000      -0.230063        -6.2603
 124   1.0000      -0.228821        -6.2265
 125   1.0000      -0.219423        -5.9708
 126   1.0000      -0.217667        -5.9230
 127   1.0000      -0.213211        -5.8018
 128   1.0000      -0.211249        -5.7484
 129   1.0000      -0.193265        -5.2590
 130   1.0000      -0.188111        -5.1188
 131   1.0000      -0.187279        -5.0961
 132   1.0000      -0.182910        -4.9772
 133   1.0000      -0.177642        -4.8339
 134   1.0000      -0.159870        -4.3503
 135   1.0000      -0.151592        -4.1250
 136   1.0000      -0.147593        -4.0162
 137   1.0000      -0.135302        -3.6817
 138   1.0000      -0.134343        -3.6556
 139   1.0000      -0.131168        -3.5693
 140   1.0000      -0.124541        -3.3889
 141   1.0000      -0.121048        -3.2939
 142   1.0000      -0.114080        -3.1043
 143   1.0000      -0.108210        -2.9445
 144   1.0000      -0.099564        -2.7093
 145   1.0000      -0.097725        -2.6592
 146   1.0000      -0.096557        -2.6274
 147   1.0000      -0.094089        -2.5603
 148   1.0000      -0.074346        -2.0231
 149   1.0000      -0.067771        -1.8441
 150   1.0000      -0.067080        -1.8253
 151   1.0000      -0.051323        -1.3966
 152   1.0000      -0.046359        -1.2615
 153   1.0000      -0.036642        -0.9971
 154   1.0000      -0.033182        -0.9029
 155   1.0000      -0.030787        -0.8378
 156   1.0000      -0.023007        -0.6260
 157   1.0000      -0.018057        -0.4914
 158   1.0000      -0.014099        -0.3836
 159   1.0000       0.020321         0.5530
 160   1.0000       0.040800         1.1102
 161   0.0000       0.136863         3.7242
 162   0.0000       0.136952         3.7266
 163   0.0000       0.161549         4.3960
 164   0.0000       0.161617         4.3978
 165   0.0000       0.167848         4.5674

                 SPIN DOWN ORBITALS
  NO   OCC          E(Eh)            E(eV)
   0   1.0000    -196.673243     -5351.7510
   1   1.0000     -88.738379     -2414.6941
   2   1.0000     -88.737990     -2414.6835
   3   1.0000     -88.733792     -2414.5692
   4   1.0000     -88.733246     -2414.5544
   5   1.0000     -88.728560     -2414.4269
   6   1.0000     -88.728504     -2414.4253
   7   1.0000     -88.725965     -2414.3562
   8   1.0000     -88.725870     -2414.3537
   9   1.0000     -88.641995     -2412.0713
  10   1.0000     -88.641771     -2412.0652
  11   1.0000     -88.637348     -2411.9449
  12   1.0000     -88.636369     -2411.9182
  13   1.0000     -22.033896      -599.5728
  14   1.0000     -18.892573      -514.0931
  15   1.0000     -18.549784      -504.7653
  16   1.0000     -18.534120      -504.3391
  17   1.0000     -18.533930      -504.3339
  18   1.0000     -10.075239      -274.1612
  19   1.0000     -10.074872      -274.1512
  20   1.0000     -10.065606      -273.8991
  21   1.0000     -10.065498      -273.8961
  22   1.0000     -10.062372      -273.8111
  23   1.0000     -10.062328      -273.8099
  24   1.0000     -10.051579      -273.5174
  25   1.0000     -10.051431      -273.5133
  26   1.0000     -10.048416      -273.4313
  27   1.0000     -10.047888      -273.4169
  28   1.0000     -10.018919      -272.6286
  29   1.0000     -10.018231      -272.6099
  30   1.0000     -10.016314      -272.5578
  31   1.0000     -10.016082      -272.5514
  32   1.0000      -7.790966      -212.0030
  33   1.0000      -7.790603      -211.9931
  34   1.0000      -7.785495      -211.8541
  35   1.0000      -7.785069      -211.8425
  36   1.0000      -7.782767      -211.7799
  37   1.0000      -7.782696      -211.7779
  38   1.0000      -7.780819      -211.7268
  39   1.0000      -7.780797      -211.7262
  40   1.0000      -7.696552      -209.4338
  41   1.0000      -7.696204      -209.4244
  42   1.0000      -7.691637      -209.3001
  43   1.0000      -7.690577      -209.2713
  44   1.0000      -5.755971      -156.6279
  45   1.0000      -5.755605      -156.6180
  46   1.0000      -5.752790      -156.5414
  47   1.0000      -5.752422      -156.5314
  48   1.0000      -5.750663      -156.4835
  49   1.0000      -5.750217      -156.4714
  50   1.0000      -5.747764      -156.4046
  51   1.0000      -5.747691      -156.4026
  52   1.0000      -5.746276      -156.3641
  53   1.0000      -5.745818      -156.3517
  54   1.0000      -5.745666      -156.3475
  55   1.0000      -5.745620      -156.3463
  56   1.0000      -5.745592      -156.3455
  57   1.0000      -5.745311      -156.3379
  58   1.0000      -5.744127      -156.3056
  59   1.0000      -5.744064      -156.3039
  60   1.0000      -5.741124      -156.2239
  61   1.0000      -5.741033      -156.2214
  62   1.0000      -5.741033      -156.2214
  63   1.0000      -5.740731      -156.2132
  64   1.0000      -5.737607      -156.1282
  65   1.0000      -5.737540      -156.1264
  66   1.0000      -5.736748      -156.1048
  67   1.0000      -5.736741      -156.1047
  68   1.0000      -5.662137      -154.0746
  69   1.0000      -5.661847      -154.0667
  70   1.0000      -5.656730      -153.9274
  71   1.0000      -5.655680      -153.8989
  72   1.0000      -5.655068      -153.8822
  73   1.0000      -5.654751      -153.8736
  74   1.0000      -5.653836      -153.8487
  75   1.0000      -5.653472      -153.8388
  76   1.0000      -5.650842      -153.7672
  77   1.0000      -5.649817      -153.7393
  78   1.0000      -5.648860      -153.7133
  79   1.0000      -5.647758      -153.6833
  80   1.0000      -2.398793       -65.2745
  81   1.0000      -1.465268       -39.8720
  82   1.0000      -1.412157       -38.4267
  83   1.0000      -1.410875       -38.3919
  84   1.0000      -0.709704       -19.3120
  85   1.0000      -0.709583       -19.3087
  86   1.0000      -0.685390       -18.6504
  87   1.0000      -0.685250       -18.6466
  88   1.0000      -0.656657       -17.8685
  89   1.0000      -0.632076       -17.1997
  90   1.0000      -0.631888       -17.1946
  91   1.0000      -0.615662       -16.7530
  92   1.0000      -0.615467       -16.7477
  93   1.0000      -0.574644       -15.6369
  94   1.0000      -0.574436       -15.6312
  95   1.0000      -0.571500       -15.5513
  96   1.0000      -0.570895       -15.5348
  97   1.0000      -0.498283       -13.5590
  98   1.0000      -0.497662       -13.5421
  99   1.0000      -0.493885       -13.4393
 100   1.0000      -0.493303       -13.4235
 101   1.0000      -0.478163       -13.0115
 102   1.0000      -0.475925       -12.9506
 103   1.0000      -0.445708       -12.1283
 104   1.0000      -0.443464       -12.0673
 105   1.0000      -0.416521       -11.3341
 106   1.0000      -0.411324       -11.1927
 107   1.0000      -0.354500        -9.6464
 108   1.0000      -0.354462        -9.6454
 109   1.0000      -0.326256        -8.8779
 110   1.0000      -0.325897        -8.8681
 111   1.0000      -0.317791        -8.6475
 112   1.0000      -0.313935        -8.5426
 113   1.0000      -0.304448        -8.2844
 114   1.0000      -0.303836        -8.2678
 115   1.0000      -0.291278        -7.9261
 116   1.0000      -0.290973        -7.9178
 117   1.0000      -0.257728        -7.0131
 118   1.0000      -0.257261        -7.0004
 119   1.0000      -0.254972        -6.9381
 120   1.0000      -0.254832        -6.9343
 121   1.0000      -0.234167        -6.3720
 122   1.0000      -0.233673        -6.3586
 123   1.0000      -0.230007        -6.2588
 124   1.0000      -0.228787        -6.2256
 125   1.0000      -0.219082        -5.9615
 126   1.0000      -0.217534        -5.9194
 127   1.0000      -0.212930        -5.7941
 128   1.0000      -0.211097        -5.7442
 129   1.0000      -0.191101        -5.2001
 130   1.0000      -0.187946        -5.1143
 131   1.0000      -0.187065        -5.0903
 132   1.0000      -0.182634        -4.9697
 133   1.0000      -0.177529        -4.8308
 134   1.0000      -0.158982        -4.3261
 135   1.0000      -0.151486        -4.1222
 136   1.0000      -0.147503        -4.0137
 137   1.0000      -0.134458        -3.6588
 138   1.0000      -0.134180        -3.6512
 139   1.0000      -0.130823        -3.5599
 140   1.0000      -0.123739        -3.3671
 141   1.0000      -0.120773        -3.2864
 142   1.0000      -0.115055        -3.1308
 143   1.0000      -0.110077        -2.9954
 144   1.0000      -0.099501        -2.7076
 145   1.0000      -0.097963        -2.6657
 146   1.0000      -0.096547        -2.6272
 147   1.0000      -0.094361        -2.5677
 148   1.0000      -0.069651        -1.8953
 149   1.0000      -0.067736        -1.8432
 150   1.0000      -0.067071        -1.8251
 151   1.0000      -0.049294        -1.3413
 152   1.0000      -0.045065        -1.2263
 153   1.0000      -0.036446        -0.9918
 154   1.0000      -0.032792        -0.8923
 155   1.0000      -0.030960        -0.8425
 156   1.0000      -0.023649        -0.6435
 157   1.0000      -0.014598        -0.3972
 158   1.0000       0.020601         0.5606
 159   1.0000       0.039690         1.0800
 160   0.0000       0.136857         3.7241
 161   0.0000       0.136963         3.7269
 162   0.0000       0.153360         4.1731
 163   0.0000       0.161783         4.4024
 164   0.0000       0.162839         4.4311

MULLIKEN ATOMIC CHARGES AND SPIN POPULATIONS
--------------------------------------------
   0 V :    0.479354    1.196894
   1 S :   -0.256746   -0.019047
   2 S :   -0.325628   -0.027201
   3 S :   -0.325473   -0.025570
   4 S :   -0.254925   -0.021981
   5 O :   -0.469573   -0.141892
   6 C :   -0.147047    0.003741
   7 C :   -0.019173    0.016711
   8 C :   -0.016146    0.016036
   9 C :   -0.155363    0.001839
  10 S :    0.122107   -0.000869
  11 S :    0.080817   -0.000129
  12 S :    0.123117   -0.000564
  13 S :    0.078959    0.000043
  14 C :   -0.214389    0.001394
  15 C :   -0.215899    0.000978
  16 C :   -0.188234    0.000181
  17 C :   -0.182996   -0.000365
  18 S :    0.008410   -0.000123
  19 S :    0.008090   -0.000142
  20 S :    0.006346   -0.000109
  21 S :    0.006592   -0.000020
  22 C :   -0.303616    0.000010
  23 C :   -0.293977   -0.000024
  24 C :   -0.160068   -0.000008
  25 H :    0.151268    0.000001
  26 H :    0.118032   -0.000003
  27 H :    0.083776   -0.000002
  28 H :    0.092503   -0.000003
  29 H :    0.108180   -0.000009
  30 H :    0.134227   -0.000000
  31 C :   -0.293446    0.000195
  32 C :   -0.303279    0.000257
  33 C :   -0.158981   -0.000273
  34 H :    0.149546   -0.000022
  35 H :    0.117029    0.000034
  36 H :    0.091884    0.000026
  37 H :    0.082960    0.000018
  38 H :    0.107850    0.000013
  39 H :    0.133913   -0.000015
Sum of atomic charges         :   -2.0000000

LOEWDIN ATOMIC CHARGES AND SPIN POPULATIONS
-------------------------------------------
   0 V :   -0.164351    1.149818
   1 S :    0.123141   -0.009476
   2 S :    0.032521   -0.019631
   3 S :    0.039027   -0.018491
   4 S :    0.127229   -0.010687
   5 O :   -0.319923   -0.127195
   6 C :   -0.558452    0.004606
   7 C :   -0.540529    0.014918
   8 C :   -0.539025    0.015001
   9 C :   -0.560414    0.003382
  10 S :    0.499400   -0.001118
  11 S :    0.444410   -0.000423
  12 S :    0.500376   -0.000920
  13 S :    0.441335   -0.000416
  14 C :   -0.466902    0.000131
  15 C :   -0.467089   -0.000031
  16 C :   -0.621628    0.000658
  17 C :   -0.620429    0.000074
  18 S :    0.347168   -0.000073
  19 S :    0.371249   -0.000101
  20 S :    0.370353   -0.000101
  21 S :    0.346430   -0.000022
  22 C :   -0.280496    0.000001
  23 C :   -0.285933   -0.000029
  24 C :   -0.176500   -0.000001
  25 H :    0.066600    0.000000
  26 H :    0.054116   -0.000000
  27 H :    0.058133   -0.000003
  28 H :    0.059997   -0.000001
  29 H :    0.053757   -0.000005
  30 H :    0.059663   -0.000002
  31 C :   -0.286571    0.000017
  32 C :   -0.281120    0.000081
  33 C :   -0.176377    0.000009
  34 H :    0.065732    0.000001
  35 H :    0.053823    0.000015
  36 H :    0.060004    0.000005
  37 H :    0.058055    0.000002
  38 H :    0.053783    0.000004
  39 H :    0.059438    0.000001

  Mayer bond orders larger than 0.100000
B(  0-V ,  1-S ) :   0.8576 B(  0-V ,  2-S ) :   0.6745 B(  0-V ,  3-S ) :   0.6780
B(  0-V ,  4-S ) :   0.8669 B(  0-V ,  5-O ) :   2.1424 B(  1-S ,  8-C ) :   1.0332
B(  2-S ,  6-C ) :   1.1617 B(  3-S ,  9-C ) :   1.1511 B(  4-S ,  7-C ) :   1.0302
B(  6-C ,  7-C ) :   1.6811 B(  6-C , 10-S ) :   0.9788 B(  7-C , 11-S ) :   0.9006
B(  8-C ,  9-C ) :   1.6966 B(  8-C , 13-S ) :   0.8921 B(  9-C , 12-S ) :   0.9808
B( 10-S , 14-C ) :   1.2530 B( 11-S , 14-C ) :   1.2353 B( 12-S , 15-C ) :   1.2515
B( 13-S , 15-C ) :   1.2324 B( 14-C , 16-C ) :   1.4462 B( 15-C , 17-C ) :   1.4487
B( 16-C , 18-S ) :   1.0887 B( 16-C , 19-S ) :   1.0786 B( 17-C , 20-S ) :   1.0742
B( 17-C , 21-S ) :   1.0878 B( 18-S , 32-C ) :   0.9854 B( 19-S , 31-C ) :   0.9934
B( 20-S , 23-C ) :   0.9933 B( 21-S , 22-C ) :   0.9828 B( 22-C , 24-C ) :   0.9076
B( 22-C , 25-H ) :   0.9683 B( 22-C , 26-H ) :   0.9646 B( 23-C , 24-C ) :   0.9185
B( 23-C , 29-H ) :   0.9657 B( 23-C , 30-H ) :   0.9627 B( 24-C , 27-H ) :   0.9624
B( 24-C , 28-H ) :   0.9724 B( 31-C , 33-C ) :   0.9187 B( 31-C , 38-H ) :   0.9655
B( 31-C , 39-H ) :   0.9629 B( 32-C , 33-C ) :   0.9093 B( 32-C , 34-H ) :   0.9679
B( 32-C , 35-H ) :   0.9646 B( 33-C , 36-H ) :   0.9722 B( 33-C , 37-H ) :   0.9627

FINAL SINGLE POINT ENERGY     -6337.680498520366

DIPOLE MOMENT
-------------
                                X             Y             Z
Electronic contribution:     -2.78017      -3.55766      12.83816
Nuclear contribution   :      3.07702       3.90564     -14.30561
                        -----------------------------------------
Total Dipole Moment    :      0.29685       0.34798      -1.46745
                        -----------------------------------------
Magnitude (a.u.)       :      1.53708
Magnitude (Debye)      :      3.90695

Rotational constants in cm-1:     0.010743     0.000804     0.000783
Rotational constants in MHz :   322.080387    24.113516    23.482354

                             ****ORCA TERMINATED NORMALLY****
TOTAL RUN TIME: 0 days 1 hours 1 minutes 27 seconds 140 msec
