                         Program Version 5.0.4 -  RELEASE  -
|  1> ! nofrozencore ReducedPop printbasis
|  2> ! B3LYP TZVP
|  3>
|  4> %basis
|  5> newgto V "CP(PPP)" end
|  6> end
|  7>
|  8> %pal
|  9> nprocs 8
| 10> end
| 11>
| 12> % sym SymThresh 1e-2 end
| 13> * xyz -2 2
| 14> V -0.4527880634485759 0.9475040253427883 0.359783001554688
| 15> S 1.9238255905529456 1.0987977989639401 1.2394003510095557
| 16> S 0.5492609819105093 1.4433479056349172 -1.7861859963007773
| 17> S -0.6129404738956606 -0.6810949944449752 2.299583009168958
| 18> S -2.081602678171927 -0.5293956420838125 -0.6166561848219223
| 19> O -1.1777133235286517 2.2750684427967593 0.8498975138688349
| 20> C -0.9403488954606677 0.9509327465333869 -2.8122539644038858
| 21> C -1.9792679784510776 0.167361148719333 -2.351804555517854
| 22> C 1.8652274184476907 0.22846475885687095 2.662827400200665
| 23> C 0.8446434235078311 -0.49195410025716296 3.0878246991231766
| 24> S -1.0765998463544744 1.4157286134096851 -4.6979283022841685
| 25> S -3.298894309420322 -0.2815099910969309 -3.707146773580029
| 26> S 1.0018191492124955 -1.3282079372725477 4.541003403050625
| 27> S 3.259116431986583 0.26690469667144806 3.6053221025684743
| 28> C -2.5291799986642367 0.556622872808581 -4.986257595617287
| 29> C 2.7198159505729906 -0.8831703021830887 4.895787489158058
| 30> C -3.075343758274908 0.5494023487017192 -6.208185228281579
| 31> C 3.4739319449423363 -1.3156540993996673 5.980425715008256
| 32> S -2.405033647545693 1.419440531938669 -7.479369726241625
| 33> S -4.511145372714492 -0.2664585880176695 -6.524553639685189
| 34> S 5.231331858110137 -0.7745289219003796 6.237535795732781
| 35> S 2.799203002834736 -2.509788406392952 7.23291638740028
| 36> C 3.973386563254079 -3.8924801504567847 6.872954985529648
| 37> C 6.008160608214677 -2.442055092570665 6.0467398359047255
| 38> C 5.43802533378254 -3.4665269920594732 7.035987791434574
| 39> H 3.765205525152521 -4.274311550889914 5.871105528794639
| 40> H 3.74456089946116 -4.6814670108030425 7.597601529596261
| 41> H 6.060114995941444 -4.372984420298186 6.975765916307037
| 42> H 5.56008002355346 -3.0623328443474143 8.04774327372822
| 43> H 7.075865540088508 -2.3030531082976564 6.248147493751843
| 44> H 5.892519984399163 -2.7643283404388885 5.009669011055706
| 45> C -5.614335775262099 1.144330661238688 -7.022845953748462
| 46> C -3.784178671106934 2.6120315608430653 -7.847050783659622
| 47> C -5.135480038628523 1.9903935010188623 -8.203596948426943
| 48> H -3.906512720374551 3.244183134605669 -6.962819269597693
| 49> H -3.3928513310401383 3.234762587380885 -8.658466224871704
| 50> H -5.082393389407337 1.404657174077872 -9.130271798765584
| 51> H -5.86106811447636 2.8063442696418224 -8.361054472391446
| 52> H -6.582081004280958 0.6721898577832285 -7.222532641849265
| 53> H -5.725693375782506 1.7885790041362242 -6.145944313245882
| 54> *
| 55>
| 56> % eprnmr
| 57> gtensor true
| 58> Nuclei = all H {aiso,adip,aorb,fgrad,rho}
| 59> Nuclei = all V {aiso,adip,aorb,fgrad,rho}
| 60> end
| 61>
| 62>                          ****END OF INPUT****

CARTESIAN COORDINATES (ANGSTROEM)
---------------------------------
  V     -0.452473    0.945232    0.356711
  S      1.924140    1.096526    1.236328
  S      0.549576    1.441076   -1.789258
  S     -0.612626   -0.683367    2.296511
  S     -2.081288   -0.531667   -0.619728
  O     -1.177399    2.272797    0.846825
  C     -0.940034    0.948661   -2.815326
  C     -1.978953    0.165089   -2.354877
  C      1.865542    0.226193    2.659755
  C      0.844958   -0.494226    3.084753
  S     -1.076285    1.413457   -4.701000
  S     -3.298579   -0.283782   -3.710219
  S      1.002134   -1.330480    4.537931
  S      3.259431    0.264633    3.602250
  C     -2.528865    0.554351   -4.989330
  C      2.720131   -0.885442    4.892715
  C     -3.075029    0.547131   -6.211257
  C      3.474247   -1.317926    5.977354
  S     -2.404719    1.417169   -7.482442
  S     -4.510831   -0.268730   -6.527626
  S      5.231647   -0.776801    6.234464
  S      2.799518   -2.512060    7.229844
  C      3.973701   -3.894752    6.869883
  C      6.008475   -2.444327    6.043668
  C      5.438340   -3.468799    7.032916
  H      3.765520   -4.276583    5.868033
  H      3.744876   -4.683739    7.594529
  H      6.060430   -4.375256    6.972694
  H      5.560395   -3.064605    8.044671
  H      7.076180   -2.305325    6.245075
  H      5.892835   -2.766600    5.006597
  C     -5.614021    1.142059   -7.025918
  C     -3.783864    2.609760   -7.850123
  C     -5.135165    1.988122   -8.206669
  H     -3.906198    3.241911   -6.965891
  H     -3.392537    3.232491   -8.661538
  H     -5.082079    1.402385   -9.133344
  H     -5.860753    2.804073   -8.364127
  H     -6.581766    0.669918   -7.225605
  H     -5.725379    1.786307   -6.149016

 Total Charge           Charge          ....   -2
 Multiplicity           Mult            ....    2
 Number of Electrons    NEL             ....  321
 Basis Dimension        Dim             ....  681

ORBITAL ENERGIES
----------------
                 SPIN UP ORBITALS
  NO   OCC          E(Eh)            E(eV)
   0   1.0000    -196.675745     -5351.8191
   1   1.0000     -88.734443     -2414.5870
   2   1.0000     -88.734378     -2414.5852
   3   1.0000     -88.734218     -2414.5808
   4   1.0000     -88.734114     -2414.5780
   5   1.0000     -88.728932     -2414.4370
   6   1.0000     -88.728704     -2414.4308
   7   1.0000     -88.723915     -2414.3005
   8   1.0000     -88.723782     -2414.2969
   9   1.0000     -88.652501     -2412.3572
  10   1.0000     -88.652228     -2412.3498
  11   1.0000     -88.630767     -2411.7658
  12   1.0000     -88.630357     -2411.7546
  13   1.0000     -22.050996      -600.0381
  14   1.0000     -18.890515      -514.0370
  15   1.0000     -18.557474      -504.9745
  16   1.0000     -18.552272      -504.8330
  17   1.0000     -18.552176      -504.8304
  18   1.0000     -10.075384      -274.1651
  19   1.0000     -10.070808      -274.0406
  20   1.0000     -10.063814      -273.8503
  21   1.0000     -10.063762      -273.8489
  22   1.0000     -10.062214      -273.8068
  23   1.0000     -10.062154      -273.8051
  24   1.0000     -10.055502      -273.6241
  25   1.0000     -10.055049      -273.6118
  26   1.0000     -10.048379      -273.4303
  27   1.0000     -10.041734      -273.2495
  28   1.0000     -10.040879      -273.2262
  29   1.0000     -10.033317      -273.0204
  30   1.0000      -9.997190      -272.0374
  31   1.0000      -9.996219      -272.0109
  32   1.0000      -7.787076      -211.8971
  33   1.0000      -7.787015      -211.8955
  34   1.0000      -7.786242      -211.8744
  35   1.0000      -7.786143      -211.8717
  36   1.0000      -7.784894      -211.8377
  37   1.0000      -7.784671      -211.8317
  38   1.0000      -7.778692      -211.6690
  39   1.0000      -7.778573      -211.6657
  40   1.0000      -7.704485      -209.6497
  41   1.0000      -7.704104      -209.6393
  42   1.0000      -7.687580      -209.1897
  43   1.0000      -7.687280      -209.1815
  44   1.0000      -5.751820      -156.5150
  45   1.0000      -5.751766      -156.5135
  46   1.0000      -5.751318      -156.5013
  47   1.0000      -5.751209      -156.4983
  48   1.0000      -5.749759      -156.4589
  49   1.0000      -5.749538      -156.4529
  50   1.0000      -5.748097      -156.4137
  51   1.0000      -5.748007      -156.4112
  52   1.0000      -5.747975      -156.4104
  53   1.0000      -5.747910      -156.4086
  54   1.0000      -5.745967      -156.3557
  55   1.0000      -5.745751      -156.3498
  56   1.0000      -5.743833      -156.2976
  57   1.0000      -5.743717      -156.2945
  58   1.0000      -5.742808      -156.2698
  59   1.0000      -5.742744      -156.2680
  60   1.0000      -5.740964      -156.2196
  61   1.0000      -5.740866      -156.2169
  62   1.0000      -5.739774      -156.1872
  63   1.0000      -5.739545      -156.1810
  64   1.0000      -5.738732      -156.1588
  65   1.0000      -5.738610      -156.1555
  66   1.0000      -5.734474      -156.0430
  67   1.0000      -5.734354      -156.0397
  68   1.0000      -5.670709      -154.3078
  69   1.0000      -5.670360      -154.2983
  70   1.0000      -5.662949      -154.0967
  71   1.0000      -5.662604      -154.0873
  72   1.0000      -5.661476      -154.0566
  73   1.0000      -5.661058      -154.0452
  74   1.0000      -5.652270      -153.8061
  75   1.0000      -5.651959      -153.7976
  76   1.0000      -5.646316      -153.6441
  77   1.0000      -5.646011      -153.6358
  78   1.0000      -5.644991      -153.6080
  79   1.0000      -5.644671      -153.5993
  80   1.0000      -2.444651       -66.5223
  81   1.0000      -1.485852       -40.4321
  82   1.0000      -1.474326       -40.1184
  83   1.0000      -1.473561       -40.0976
  84   1.0000      -0.731174       -19.8962
  85   1.0000      -0.708594       -19.2818
  86   1.0000      -0.687380       -18.7045
  87   1.0000      -0.684696       -18.6315
  88   1.0000      -0.650120       -17.6907
  89   1.0000      -0.634383       -17.2624
  90   1.0000      -0.623710       -16.9720
  91   1.0000      -0.619401       -16.8547
  92   1.0000      -0.614378       -16.7181
  93   1.0000      -0.595659       -16.2087
  94   1.0000      -0.573064       -15.5939
  95   1.0000      -0.568862       -15.4795
  96   1.0000      -0.565623       -15.3914
  97   1.0000      -0.500258       -13.6127
  98   1.0000      -0.497606       -13.5406
  99   1.0000      -0.494100       -13.4451
 100   1.0000      -0.491269       -13.3681
 101   1.0000      -0.479263       -13.0414
 102   1.0000      -0.473528       -12.8854
 103   1.0000      -0.449078       -12.2200
 104   1.0000      -0.442189       -12.0326
 105   1.0000      -0.418670       -11.3926
 106   1.0000      -0.412448       -11.2233
 107   1.0000      -0.358852        -9.7649
 108   1.0000      -0.353197        -9.6110
 109   1.0000      -0.328045        -8.9266
 110   1.0000      -0.324602        -8.8329
 111   1.0000      -0.319945        -8.7061
 112   1.0000      -0.310920        -8.4606
 113   1.0000      -0.305241        -8.3060
 114   1.0000      -0.297665        -8.0999
 115   1.0000      -0.292728        -7.9655
 116   1.0000      -0.287815        -7.8318
 117   1.0000      -0.268063        -7.2944
 118   1.0000      -0.263072        -7.1586
 119   1.0000      -0.251251        -6.8369
 120   1.0000      -0.249416        -6.7870
 121   1.0000      -0.247953        -6.7472
 122   1.0000      -0.228799        -6.2259
 123   1.0000      -0.226814        -6.1719
 124   1.0000      -0.225796        -6.1442
 125   1.0000      -0.222591        -6.0570
 126   1.0000      -0.220930        -6.0118
 127   1.0000      -0.213652        -5.8138
 128   1.0000      -0.206796        -5.6272
 129   1.0000      -0.191662        -5.2154
 130   1.0000      -0.190169        -5.1748
 131   1.0000      -0.188957        -5.1418
 132   1.0000      -0.182258        -4.9595
 133   1.0000      -0.175465        -4.7746
 134   1.0000      -0.158227        -4.3056
 135   1.0000      -0.154151        -4.1946
 136   1.0000      -0.143613        -3.9079
 137   1.0000      -0.134646        -3.6639
 138   1.0000      -0.132452        -3.6042
 139   1.0000      -0.132203        -3.5974
 140   1.0000      -0.125070        -3.4033
 141   1.0000      -0.119292        -3.2461
 142   1.0000      -0.114014        -3.1025
 143   1.0000      -0.111087        -3.0228
 144   1.0000      -0.105482        -2.8703
 145   1.0000      -0.098231        -2.6730
 146   1.0000      -0.094413        -2.5691
 147   1.0000      -0.091477        -2.4892
 148   1.0000      -0.075254        -2.0478
 149   1.0000      -0.068323        -1.8592
 150   1.0000      -0.063002        -1.7144
 151   1.0000      -0.058021        -1.5788
 152   1.0000      -0.047170        -1.2835
 153   1.0000      -0.036521        -0.9938
 154   1.0000      -0.033873        -0.9217
 155   1.0000      -0.029891        -0.8134
 156   1.0000      -0.024869        -0.6767
 157   1.0000      -0.018016        -0.4902
 158   1.0000      -0.015445        -0.4203
 159   1.0000       0.012868         0.3502
 160   1.0000       0.046709         1.2710
 161   0.0000       0.134444         3.6584
 162   0.0000       0.138931         3.7805
 163   0.0000       0.150067         4.0835
 164   0.0000       0.160898         4.3782
 165   0.0000       0.162987         4.4351

                 SPIN DOWN ORBITALS
  NO   OCC          E(Eh)            E(eV)
   0   1.0000    -196.675886     -5351.8229
   1   1.0000     -88.734438     -2414.5868
   2   1.0000     -88.734373     -2414.5851
   3   1.0000     -88.734219     -2414.5809
   4   1.0000     -88.734115     -2414.5780
   5   1.0000     -88.728932     -2414.4370
   6   1.0000     -88.728704     -2414.4308
   7   1.0000     -88.723924     -2414.3007
   8   1.0000     -88.723792     -2414.2971
   9   1.0000     -88.652643     -2412.3610
  10   1.0000     -88.652374     -2412.3537
  11   1.0000     -88.630893     -2411.7692
  12   1.0000     -88.630486     -2411.7581
  13   1.0000     -22.036152      -599.6342
  14   1.0000     -18.894275      -514.1394
  15   1.0000     -18.552236      -504.8320
  16   1.0000     -18.536318      -504.3989
  17   1.0000     -18.536158      -504.3945
  18   1.0000     -10.075413      -274.1659
  19   1.0000     -10.070789      -274.0401
  20   1.0000     -10.063814      -273.8503
  21   1.0000     -10.063762      -273.8489
  22   1.0000     -10.062214      -273.8068
  23   1.0000     -10.062154      -273.8051
  24   1.0000     -10.055502      -273.6241
  25   1.0000     -10.055048      -273.6118
  26   1.0000     -10.048379      -273.4303
  27   1.0000     -10.041312      -273.2380
  28   1.0000     -10.040483      -273.2154
  29   1.0000     -10.033297      -273.0199
  30   1.0000      -9.997081      -272.0344
  31   1.0000      -9.996111      -272.0080
  32   1.0000      -7.787070      -211.8969
  33   1.0000      -7.787011      -211.8953
  34   1.0000      -7.786243      -211.8745
  35   1.0000      -7.786144      -211.8718
  36   1.0000      -7.784894      -211.8377
  37   1.0000      -7.784671      -211.8317
  38   1.0000      -7.778704      -211.6693
  39   1.0000      -7.778585      -211.6660
  40   1.0000      -7.704611      -209.6531
  41   1.0000      -7.704234      -209.6429
  42   1.0000      -7.687701      -209.1930
  43   1.0000      -7.687404      -209.1849
  44   1.0000      -5.751805      -156.5146
  45   1.0000      -5.751752      -156.5131
  46   1.0000      -5.751320      -156.5014
  47   1.0000      -5.751211      -156.4984
  48   1.0000      -5.749759      -156.4589
  49   1.0000      -5.749539      -156.4529
  50   1.0000      -5.748099      -156.4137
  51   1.0000      -5.748009      -156.4113
  52   1.0000      -5.747971      -156.4103
  53   1.0000      -5.747907      -156.4085
  54   1.0000      -5.745967      -156.3557
  55   1.0000      -5.745751      -156.3498
  56   1.0000      -5.743841      -156.2978
  57   1.0000      -5.743724      -156.2947
  58   1.0000      -5.742805      -156.2697
  59   1.0000      -5.742743      -156.2680
  60   1.0000      -5.740965      -156.2196
  61   1.0000      -5.740867      -156.2169
  62   1.0000      -5.739774      -156.1872
  63   1.0000      -5.739546      -156.1810
  64   1.0000      -5.738749      -156.1593
  65   1.0000      -5.738626      -156.1560
  66   1.0000      -5.734482      -156.0432
  67   1.0000      -5.734361      -156.0399
  68   1.0000      -5.670884      -154.3126
  69   1.0000      -5.670540      -154.3033
  70   1.0000      -5.663345      -154.1074
  71   1.0000      -5.663001      -154.0981
  72   1.0000      -5.661538      -154.0583
  73   1.0000      -5.661134      -154.0473
  74   1.0000      -5.652395      -153.8095
  75   1.0000      -5.652085      -153.8011
  76   1.0000      -5.646643      -153.6530
  77   1.0000      -5.646349      -153.6450
  78   1.0000      -5.645080      -153.6104
  79   1.0000      -5.644760      -153.6017
  80   1.0000      -2.400048       -65.3086
  81   1.0000      -1.466657       -39.9098
  82   1.0000      -1.412805       -38.4444
  83   1.0000      -1.411820       -38.4176
  84   1.0000      -0.731134       -19.8952
  85   1.0000      -0.708603       -19.2821
  86   1.0000      -0.687380       -18.7046
  87   1.0000      -0.684630       -18.6297
  88   1.0000      -0.658203       -17.9106
  89   1.0000      -0.634245       -17.2587
  90   1.0000      -0.623736       -16.9727
  91   1.0000      -0.619396       -16.8546
  92   1.0000      -0.614383       -16.7182
  93   1.0000      -0.595721       -16.2104
  94   1.0000      -0.572696       -15.5838
  95   1.0000      -0.568920       -15.4811
  96   1.0000      -0.565510       -15.3883
  97   1.0000      -0.500226       -13.6118
  98   1.0000      -0.497689       -13.5428
  99   1.0000      -0.494046       -13.4437
 100   1.0000      -0.491437       -13.3727
 101   1.0000      -0.479422       -13.0457
 102   1.0000      -0.473648       -12.8886
 103   1.0000      -0.449072       -12.2199
 104   1.0000      -0.442243       -12.0340
 105   1.0000      -0.418645       -11.3919
 106   1.0000      -0.412558       -11.2263
 107   1.0000      -0.358838        -9.7645
 108   1.0000      -0.353217        -9.6115
 109   1.0000      -0.328028        -8.9261
 110   1.0000      -0.324612        -8.8331
 111   1.0000      -0.319702        -8.6995
 112   1.0000      -0.311015        -8.4632
 113   1.0000      -0.305247        -8.3062
 114   1.0000      -0.297572        -8.0973
 115   1.0000      -0.292731        -7.9656
 116   1.0000      -0.287797        -7.8314
 117   1.0000      -0.267963        -7.2916
 118   1.0000      -0.262836        -7.1521
 119   1.0000      -0.251242        -6.8366
 120   1.0000      -0.249368        -6.7857
 121   1.0000      -0.247905        -6.7458
 122   1.0000      -0.228763        -6.2250
 123   1.0000      -0.226751        -6.1702
 124   1.0000      -0.225714        -6.1420
 125   1.0000      -0.222558        -6.0561
 126   1.0000      -0.220666        -6.0046
 127   1.0000      -0.213576        -5.8117
 128   1.0000      -0.206272        -5.6129
 129   1.0000      -0.190187        -5.1753
 130   1.0000      -0.189540        -5.1576
 131   1.0000      -0.188931        -5.1411
 132   1.0000      -0.181984        -4.9520
 133   1.0000      -0.175370        -4.7721
 134   1.0000      -0.157051        -4.2736
 135   1.0000      -0.154044        -4.1917
 136   1.0000      -0.143429        -3.9029
 137   1.0000      -0.133586        -3.6351
 138   1.0000      -0.132317        -3.6005
 139   1.0000      -0.132085        -3.5942
 140   1.0000      -0.124709        -3.3935
 141   1.0000      -0.119090        -3.2406
 142   1.0000      -0.115396        -3.1401
 143   1.0000      -0.112324        -3.0565
 144   1.0000      -0.105923        -2.8823
 145   1.0000      -0.098494        -2.6802
 146   1.0000      -0.094395        -2.5686
 147   1.0000      -0.091608        -2.4928
 148   1.0000      -0.072373        -1.9694
 149   1.0000      -0.068321        -1.8591
 150   1.0000      -0.062800        -1.7089
 151   1.0000      -0.056028        -1.5246
 152   1.0000      -0.044027        -1.1980
 153   1.0000      -0.036535        -0.9942
 154   1.0000      -0.033291        -0.9059
 155   1.0000      -0.029918        -0.8141
 156   1.0000      -0.025416        -0.6916
 157   1.0000      -0.015695        -0.4271
 158   1.0000       0.012011         0.3268
 159   1.0000       0.045802         1.2463
 160   0.0000       0.134463         3.6589
 161   0.0000       0.138890         3.7794
 162   0.0000       0.145805         3.9676
 163   0.0000       0.158860         4.3228
 164   0.0000       0.163371         4.4456

MULLIKEN ATOMIC CHARGES AND SPIN POPULATIONS
--------------------------------------------
   0 V :    0.479640    1.201442
   1 S :   -0.306536   -0.018547
   2 S :   -0.269235   -0.029470
   3 S :   -0.305512   -0.019536
   4 S :   -0.263612   -0.029070
   5 O :   -0.467640   -0.145919
   6 C :   -0.078364    0.017985
   7 C :   -0.082985    0.015590
   8 C :   -0.085558    0.002626
   9 C :   -0.084841    0.002553
  10 S :    0.077182    0.000511
  11 S :    0.077889    0.000435
  12 S :    0.115635   -0.000108
  13 S :    0.114860   -0.000054
  14 C :   -0.156793    0.003897
  15 C :   -0.231553   -0.001030
  16 C :   -0.245521   -0.001035
  17 C :   -0.174183    0.000020
  18 S :    0.025263   -0.000036
  19 S :    0.025385   -0.000037
  20 S :   -0.006774   -0.000182
  21 S :   -0.007042   -0.000187
  22 C :   -0.286257    0.000020
  23 C :   -0.285780    0.000019
  24 C :   -0.170464   -0.000028
  25 H :    0.145464   -0.000003
  26 H :    0.107819   -0.000006
  27 H :    0.078234    0.000004
  28 H :    0.093745    0.000001
  29 H :    0.107540   -0.000006
  30 H :    0.144992   -0.000002
  31 C :   -0.316510    0.000230
  32 C :   -0.317473    0.000220
  33 C :   -0.144293   -0.000336
  34 H :    0.138137   -0.000020
  35 H :    0.118928    0.000017
  36 H :    0.090512    0.000023
  37 H :    0.088285    0.000024
  38 H :    0.118868    0.000019
  39 H :    0.138549   -0.000021
Sum of atomic charges         :   -2.0000000

LOEWDIN ATOMIC CHARGES AND SPIN POPULATIONS
-------------------------------------------
   0 V :   -0.157612    1.155097
   1 S :    0.094715   -0.013006
   2 S :    0.068335   -0.017776
   3 S :    0.096586   -0.013786
   4 S :    0.074805   -0.017243
   5 O :   -0.319590   -0.131085
   6 C :   -0.460631    0.016495
   7 C :   -0.463660    0.014899
   8 C :   -0.633470    0.003732
   9 C :   -0.633108    0.003551
  10 S :    0.438415    0.000552
  11 S :    0.439347    0.000427
  12 S :    0.504859   -0.000852
  13 S :    0.504615   -0.000846
  14 C :   -0.505276    0.000834
  15 C :   -0.442457   -0.001244
  16 C :   -0.703493    0.000610
  17 C :   -0.571670   -0.000007
  18 S :    0.395285   -0.000029
  19 S :    0.396378   -0.000024
  20 S :    0.332986   -0.000169
  21 S :    0.332507   -0.000173
  22 C :   -0.284694   -0.000004
  23 C :   -0.284765   -0.000005
  24 C :   -0.180856    0.000001
  25 H :    0.062424   -0.000002
  26 H :    0.053375   -0.000005
  27 H :    0.056456    0.000000
  28 H :    0.060851   -0.000000
  29 H :    0.053340   -0.000005
  30 H :    0.062245   -0.000002
  31 C :   -0.283796    0.000020
  32 C :   -0.283488    0.000006
  33 C :   -0.170700    0.000018
  34 H :    0.061974    0.000001
  35 H :    0.053692    0.000008
  36 H :    0.059856    0.000005
  37 H :    0.060468   -0.000004
  38 H :    0.053772    0.000009
  39 H :    0.061980    0.000002

  Mayer bond orders larger than 0.100000
B(  0-V ,  1-S ) :   0.7374 B(  0-V ,  2-S ) :   0.7954 B(  0-V ,  3-S ) :   0.7321
B(  0-V ,  4-S ) :   0.8065 B(  0-V ,  5-O ) :   2.1469 B(  1-S ,  8-C ) :   1.1719
B(  2-S ,  6-C ) :   1.0250 B(  3-S ,  9-C ) :   1.1714 B(  4-S ,  7-C ) :   1.0227
B(  6-C ,  7-C ) :   1.8029 B(  6-C , 10-S ) :   0.8374 B(  7-C , 11-S ) :   0.8408
B(  8-C ,  9-C ) :   1.5378 B(  8-C , 13-S ) :   1.0382 B(  9-C , 12-S ) :   1.0393
B( 10-S , 14-C ) :   1.3157 B( 11-S , 14-C ) :   1.3133 B( 12-S , 15-C ) :   1.1918
B( 13-S , 15-C ) :   1.1923 B( 14-C , 16-C ) :   1.3937 B( 15-C , 17-C ) :   1.4638
B( 16-C , 18-S ) :   1.2002 B( 16-C , 19-S ) :   1.2020 B( 17-C , 20-S ) :   1.0220
B( 17-C , 21-S ) :   1.0222 B( 18-S , 32-C ) :   0.9658 B( 19-S , 31-C ) :   0.9657
B( 20-S , 23-C ) :   1.0081 B( 21-S , 22-C ) :   1.0076 B( 22-C , 24-C ) :   0.9163
B( 22-C , 25-H ) :   0.9655 B( 22-C , 26-H ) :   0.9643 B( 23-C , 24-C ) :   0.9170
B( 23-C , 29-H ) :   0.9645 B( 23-C , 30-H ) :   0.9653 B( 24-C , 27-H ) :   0.9560
B( 24-C , 28-H ) :   0.9739 B( 31-C , 33-C ) :   0.9094 B( 31-C , 38-H ) :   0.9650
B( 31-C , 39-H ) :   0.9665 B( 32-C , 33-C ) :   0.9093 B( 32-C , 34-H ) :   0.9662
B( 32-C , 35-H ) :   0.9649 B( 33-C , 36-H ) :   0.9667 B( 33-C , 37-H ) :   0.9708

FINAL SINGLE POINT ENERGY     -6337.632887472449

DIPOLE MOMENT
-------------
                                X             Y             Z
Electronic contribution:     -3.41978      10.97095       6.69553
Nuclear contribution   :      3.50758     -12.13460      -7.99514
                        -----------------------------------------
Total Dipole Moment    :      0.08780      -1.16365      -1.29961
                        -----------------------------------------
Magnitude (a.u.)       :      1.74665
Magnitude (Debye)      :      4.43963

Rotational constants in cm-1:     0.010766     0.000804     0.000783
Rotational constants in MHz :   322.765460    24.105219    23.476893

                             ****ORCA TERMINATED NORMALLY****
TOTAL RUN TIME: 0 days 1 hours 2 minutes 3 seconds 516 msec
