                         Program Version 5.0.4 -  RELEASE  -
|  1> ! nofrozencore ReducedPop printbasis
|  2> ! B3LYP TZVP
|  3>
|  4> %basis
|  5> newgto V "CP(PPP)" end
|  6> end
|  7>
|  8> %pal
|  9> nprocs 6
| 10> end
| 11>
| 12> % sym SymThresh 1e-2 end
| 13> * xyz -2 2
| 14> V 0.19074080600260643 -0.6867787351869576 -0.8549395916048564
| 15> S -2.2190302228841388 -1.0793249651360888 -0.45806002420834585
| 16> S -0.508319757595442 1.4978869245970214 -1.7853039582626786
| 17> S 0.5687171981836364 -2.0754963371688318 1.1600025285347084
| 18> S 2.210105831695159 0.5014003020905677 -0.08328496577736284
| 19> O 0.6092612509729176 -1.564002669668011 -2.1117427800116304
| 20> C 1.0528753475806343 2.307010264187598 -1.8183923749829205
| 21> C 2.141297395229453 1.9089441362606363 -1.1331397446558358
| 22> C -2.1626199473417524 -2.293061316654408 0.8136638732871877
| 23> C -1.049647665541902 -2.6866703339672715 1.4595202823474656
| 24> S 1.2209978481275876 3.82231087433973 -2.768937673270391
| 25> S 3.5937146809660585 2.9559762112319135 -1.255453536424603
| 26> S -1.2695124160212543 -3.9055589411566043 2.7617930829851427
| 27> S -3.7033535869003593 -3.047923697754716 1.3426204647671154
| 28> C 2.8937642693461654 4.179366013215817 -2.321680526883918
| 29> C -3.033217285463903 -4.0290276445123085 2.6455479241829267
| 30> C 3.57979073214082 5.278008661373745 -2.7613357946335357
| 31> C -3.780229202222845 -4.814469891272644 3.4792881030115623
| 32> S 2.8549891386266966 6.458928198569981 -3.882152941058239
| 33> S 5.264844008396336 5.589904983864087 -2.272557370172563
| 34> S -5.564144731620846 -4.901542333224203 3.322621189126592
| 35> S -3.062632366565259 -5.768134597339675 4.788531786597741
| 36> C -3.828069574121866 -4.923713394437245 6.217817308487175
| 37> C -5.99428657269441 -4.222193242299751 5.0181175170854475
| 38> C -5.437430086072169 -4.950761079035387 6.1411483910177225
| 39> H -3.6050796503397233 -3.843105691051225 6.3645572070540855
| 40> H -3.756934061526136 -5.343308281295372 7.285255163174865
| 41> H -5.511652871084439 -4.616196664512907 7.253338784835819
| 42> H -5.931209673277526 -5.93797921540948 6.0186530139034495
| 43> H -7.097676852064044 -4.258308957075247 4.710163650215983
| 44> H -5.676421325254575 -3.180241211493469 4.8485882873972335
| 45> C 6.060696900341449 5.486445196557947 -3.940548271586048
| 46> C 4.009809390030516 6.2187300712324864 -5.309835364344727
| 47> C 5.478857047909824 6.466932268261984 -4.961555607769577
| 48> H 3.8666091249586616 5.2063762641176154 -5.694237793891392
| 49> H 3.6754212664721746 6.925016315661174 -6.0738980359443495
| 50> H 5.5943815015087415 7.490001097909529 -4.589944171321133
| 51> H 6.068881251111302 6.386260435281465 -5.885281451860249
| 52> H 7.119403779358629 5.6990991020969455 -3.772047600982899
| 53> H 5.9713504619455895 4.457283546475003 -4.29565400174332
| 54> *
| 55>
| 56> % eprnmr
| 57> gtensor true
| 58> Nuclei = all H {aiso,adip,aorb,fgrad,rho}
| 59> Nuclei = all V {aiso,adip,aorb,fgrad,rho}
| 60> end
| 61>
| 62>                          ****END OF INPUT****

CARTESIAN COORDINATES (ANGSTROEM)
---------------------------------
  V      0.191228   -0.683221   -0.853596
  S     -2.218543   -1.075767   -0.456717
  S     -0.507833    1.501444   -1.783960
  S      0.569204   -2.071939    1.161346
  S      2.210593    0.504958   -0.081941
  O      0.609748   -1.560445   -2.110399
  C      1.053362    2.310568   -1.817049
  C      2.141784    1.912502   -1.131796
  C     -2.162133   -2.289504    0.815007
  C     -1.049161   -2.683113    1.460864
  S      1.221485    3.825868   -2.767594
  S      3.594202    2.959534   -1.254110
  S     -1.269025   -3.902001    2.763137
  S     -3.702867   -3.044366    1.343964
  C      2.894251    4.182923   -2.320337
  C     -3.032730   -4.025470    2.646891
  C      3.580278    5.281566   -2.759992
  C     -3.779742   -4.810912    3.480632
  S      2.855476    6.462486   -3.880809
  S      5.265331    5.593462   -2.271214
  S     -5.563658   -4.897985    3.323965
  S     -3.062145   -5.764577    4.789875
  C     -3.827583   -4.920156    6.219161
  C     -5.993800   -4.218636    5.019461
  C     -5.436943   -4.947204    6.142492
  H     -3.604593   -3.839548    6.365901
  H     -3.756447   -5.339751    7.286599
  H     -5.511166   -4.612639    7.254682
  H     -5.930723   -5.934422    6.019996
  H     -7.097190   -4.254751    4.711507
  H     -5.675934   -3.176684    4.849932
  C      6.061184    5.490003   -3.939205
  C      4.010296    6.222288   -5.308492
  C      5.479344    6.470490   -4.960212
  H      3.867096    5.209934   -5.692894
  H      3.675908    6.928574   -6.072555
  H      5.594869    7.493559   -4.588601
  H      6.069368    6.389818   -5.883938
  H      7.119891    5.702657   -3.770704
  H      5.971837    4.460841   -4.294311

 Total Charge           Charge          ....   -2
 Multiplicity           Mult            ....    2
 Number of Electrons    NEL             ....  321
 Basis Dimension        Dim             ....  681

ORBITAL ENERGIES
----------------
                 SPIN UP ORBITALS
  NO   OCC          E(Eh)            E(eV)
   0   1.0000    -196.675289     -5351.8067
   1   1.0000     -88.738727     -2414.7035
   2   1.0000     -88.733787     -2414.5691
   3   1.0000     -88.733334     -2414.5568
   4   1.0000     -88.733308     -2414.5561
   5   1.0000     -88.732386     -2414.5310
   6   1.0000     -88.730572     -2414.4816
   7   1.0000     -88.730414     -2414.4773
   8   1.0000     -88.730206     -2414.4717
   9   1.0000     -88.640456     -2412.0294
  10   1.0000     -88.640043     -2412.0182
  11   1.0000     -88.639963     -2412.0160
  12   1.0000     -88.639760     -2412.0105
  13   1.0000     -22.050685      -600.0296
  14   1.0000     -18.890545      -514.0379
  15   1.0000     -18.557133      -504.9652
  16   1.0000     -18.551959      -504.8245
  17   1.0000     -18.551861      -504.8218
  18   1.0000     -10.077296      -274.2172
  19   1.0000     -10.076459      -274.1944
  20   1.0000     -10.075962      -274.1809
  21   1.0000     -10.066538      -273.9244
  22   1.0000     -10.063583      -273.8440
  23   1.0000     -10.063569      -273.8436
  24   1.0000     -10.060243      -273.7531
  25   1.0000     -10.051423      -273.5131
  26   1.0000     -10.049608      -273.4637
  27   1.0000     -10.048436      -273.4318
  28   1.0000     -10.018981      -272.6303
  29   1.0000     -10.018413      -272.6149
  30   1.0000     -10.018188      -272.6087
  31   1.0000     -10.017478      -272.5894
  32   1.0000      -7.792002      -212.0311
  33   1.0000      -7.787249      -211.9018
  34   1.0000      -7.786786      -211.8892
  35   1.0000      -7.786752      -211.8883
  36   1.0000      -7.785701      -211.8597
  37   1.0000      -7.783788      -211.8076
  38   1.0000      -7.783664      -211.8043
  39   1.0000      -7.783511      -211.8001
  40   1.0000      -7.694753      -209.3849
  41   1.0000      -7.694398      -209.3752
  42   1.0000      -7.694291      -209.3723
  43   1.0000      -7.694008      -209.3646
  44   1.0000      -5.757127      -156.6594
  45   1.0000      -5.753533      -156.5616
  46   1.0000      -5.752166      -156.5244
  47   1.0000      -5.751780      -156.5139
  48   1.0000      -5.751737      -156.5127
  49   1.0000      -5.750639      -156.4828
  50   1.0000      -5.748858      -156.4344
  51   1.0000      -5.748738      -156.4311
  52   1.0000      -5.748609      -156.4276
  53   1.0000      -5.748449      -156.4233
  54   1.0000      -5.748353      -156.4206
  55   1.0000      -5.748337      -156.4202
  56   1.0000      -5.746695      -156.3755
  57   1.0000      -5.746174      -156.3613
  58   1.0000      -5.744309      -156.3106
  59   1.0000      -5.744180      -156.3071
  60   1.0000      -5.744018      -156.3027
  61   1.0000      -5.742029      -156.2485
  62   1.0000      -5.741584      -156.2364
  63   1.0000      -5.741567      -156.2360
  64   1.0000      -5.741542      -156.2353
  65   1.0000      -5.739607      -156.1826
  66   1.0000      -5.739489      -156.1794
  67   1.0000      -5.739336      -156.1753
  68   1.0000      -5.660082      -154.0187
  69   1.0000      -5.659715      -154.0087
  70   1.0000      -5.659591      -154.0053
  71   1.0000      -5.659331      -153.9982
  72   1.0000      -5.653401      -153.8369
  73   1.0000      -5.653054      -153.8274
  74   1.0000      -5.652930      -153.8240
  75   1.0000      -5.652681      -153.8173
  76   1.0000      -5.652064      -153.8005
  77   1.0000      -5.651710      -153.7909
  78   1.0000      -5.651613      -153.7882
  79   1.0000      -5.651304      -153.7798
  80   1.0000      -2.444331       -66.5136
  81   1.0000      -1.485634       -40.4261
  82   1.0000      -1.473968       -40.1087
  83   1.0000      -1.473154       -40.0865
  84   1.0000      -0.711500       -19.3609
  85   1.0000      -0.709667       -19.3110
  86   1.0000      -0.687330       -18.7032
  87   1.0000      -0.685796       -18.6615
  88   1.0000      -0.650141       -17.6912
  89   1.0000      -0.633533       -17.2393
  90   1.0000      -0.631507       -17.1842
  91   1.0000      -0.618078       -16.8187
  92   1.0000      -0.617406       -16.8005
  93   1.0000      -0.575976       -15.6731
  94   1.0000      -0.574600       -15.6357
  95   1.0000      -0.574310       -15.6278
  96   1.0000      -0.573174       -15.5969
  97   1.0000      -0.498577       -13.5670
  98   1.0000      -0.496596       -13.5131
  99   1.0000      -0.496015       -13.4972
 100   1.0000      -0.495037       -13.4706
 101   1.0000      -0.480721       -13.0811
 102   1.0000      -0.477813       -13.0020
 103   1.0000      -0.446769       -12.1572
 104   1.0000      -0.441568       -12.0157
 105   1.0000      -0.416458       -11.3324
 106   1.0000      -0.411446       -11.1960
 107   1.0000      -0.355510        -9.6739
 108   1.0000      -0.354482        -9.6459
 109   1.0000      -0.334984        -9.1154
 110   1.0000      -0.326829        -8.8935
 111   1.0000      -0.318440        -8.6652
 112   1.0000      -0.313915        -8.5421
 113   1.0000      -0.304783        -8.2936
 114   1.0000      -0.303803        -8.2669
 115   1.0000      -0.292599        -7.9620
 116   1.0000      -0.281542        -7.6611
 117   1.0000      -0.261370        -7.1122
 118   1.0000      -0.257116        -6.9965
 119   1.0000      -0.256895        -6.9905
 120   1.0000      -0.251320        -6.8388
 121   1.0000      -0.236403        -6.4329
 122   1.0000      -0.234474        -6.3804
 123   1.0000      -0.230794        -6.2802
 124   1.0000      -0.221940        -6.0393
 125   1.0000      -0.218705        -5.9513
 126   1.0000      -0.215993        -5.8775
 127   1.0000      -0.214150        -5.8273
 128   1.0000      -0.209903        -5.7118
 129   1.0000      -0.193545        -5.2666
 130   1.0000      -0.186235        -5.0677
 131   1.0000      -0.185412        -5.0453
 132   1.0000      -0.179867        -4.8944
 133   1.0000      -0.178612        -4.8603
 134   1.0000      -0.159823        -4.3490
 135   1.0000      -0.152117        -4.1393
 136   1.0000      -0.147399        -4.0109
 137   1.0000      -0.135978        -3.7001
 138   1.0000      -0.133611        -3.6357
 139   1.0000      -0.132663        -3.6100
 140   1.0000      -0.125195        -3.4067
 141   1.0000      -0.121476        -3.3055
 142   1.0000      -0.113850        -3.0980
 143   1.0000      -0.109905        -2.9907
 144   1.0000      -0.100360        -2.7309
 145   1.0000      -0.098582        -2.6825
 146   1.0000      -0.097663        -2.6575
 147   1.0000      -0.095051        -2.5865
 148   1.0000      -0.074924        -2.0388
 149   1.0000      -0.068807        -1.8723
 150   1.0000      -0.067606        -1.8397
 151   1.0000      -0.052706        -1.4342
 152   1.0000      -0.045997        -1.2516
 153   1.0000      -0.038046        -1.0353
 154   1.0000      -0.037515        -1.0208
 155   1.0000      -0.031756        -0.8641
 156   1.0000      -0.025409        -0.6914
 157   1.0000      -0.019528        -0.5314
 158   1.0000      -0.015788        -0.4296
 159   1.0000       0.019922         0.5421
 160   1.0000       0.040794         1.1100
 161   0.0000       0.134067         3.6481
 162   0.0000       0.136734         3.7207
 163   0.0000       0.142197         3.8694
 164   0.0000       0.161874         4.4048
 165   0.0000       0.169192         4.6040

                 SPIN DOWN ORBITALS
  NO   OCC          E(Eh)            E(eV)
   0   1.0000    -196.675436     -5351.8107
   1   1.0000     -88.738727     -2414.7035
   2   1.0000     -88.733788     -2414.5691
   3   1.0000     -88.733335     -2414.5568
   4   1.0000     -88.733309     -2414.5561
   5   1.0000     -88.732394     -2414.5312
   6   1.0000     -88.730580     -2414.4818
   7   1.0000     -88.730423     -2414.4775
   8   1.0000     -88.730215     -2414.4719
   9   1.0000     -88.640592     -2412.0331
  10   1.0000     -88.640181     -2412.0220
  11   1.0000     -88.640104     -2412.0198
  12   1.0000     -88.639902     -2412.0144
  13   1.0000     -22.035752      -599.6233
  14   1.0000     -18.894336      -514.1410
  15   1.0000     -18.551863      -504.8218
  16   1.0000     -18.535926      -504.3882
  17   1.0000     -18.535743      -504.3832
  18   1.0000     -10.077295      -274.2171
  19   1.0000     -10.076459      -274.1944
  20   1.0000     -10.075956      -274.1807
  21   1.0000     -10.066539      -273.9244
  22   1.0000     -10.063582      -273.8440
  23   1.0000     -10.063568      -273.8436
  24   1.0000     -10.060243      -273.7531
  25   1.0000     -10.051423      -273.5131
  26   1.0000     -10.049604      -273.4636
  27   1.0000     -10.048424      -273.4315
  28   1.0000     -10.018767      -272.6245
  29   1.0000     -10.018175      -272.6084
  30   1.0000     -10.017975      -272.6030
  31   1.0000     -10.017255      -272.5834
  32   1.0000      -7.792002      -212.0312
  33   1.0000      -7.787249      -211.9018
  34   1.0000      -7.786787      -211.8892
  35   1.0000      -7.786753      -211.8883
  36   1.0000      -7.785711      -211.8600
  37   1.0000      -7.783797      -211.8079
  38   1.0000      -7.783673      -211.8045
  39   1.0000      -7.783521      -211.8004
  40   1.0000      -7.694880      -209.3883
  41   1.0000      -7.694527      -209.3787
  42   1.0000      -7.694422      -209.3759
  43   1.0000      -7.694140      -209.3682
  44   1.0000      -5.757128      -156.6594
  45   1.0000      -5.753533      -156.5616
  46   1.0000      -5.752167      -156.5244
  47   1.0000      -5.751781      -156.5139
  48   1.0000      -5.751738      -156.5128
  49   1.0000      -5.750650      -156.4831
  50   1.0000      -5.748859      -156.4344
  51   1.0000      -5.748748      -156.4314
  52   1.0000      -5.748620      -156.4279
  53   1.0000      -5.748460      -156.4235
  54   1.0000      -5.748355      -156.4207
  55   1.0000      -5.748338      -156.4202
  56   1.0000      -5.746696      -156.3755
  57   1.0000      -5.746188      -156.3617
  58   1.0000      -5.744323      -156.3110
  59   1.0000      -5.744194      -156.3075
  60   1.0000      -5.744032      -156.3031
  61   1.0000      -5.742030      -156.2486
  62   1.0000      -5.741584      -156.2365
  63   1.0000      -5.741573      -156.2361
  64   1.0000      -5.741543      -156.2353
  65   1.0000      -5.739613      -156.1828
  66   1.0000      -5.739497      -156.1797
  67   1.0000      -5.739345      -156.1755
  68   1.0000      -5.660224      -154.0225
  69   1.0000      -5.659856      -154.0125
  70   1.0000      -5.659730      -154.0091
  71   1.0000      -5.659473      -154.0021
  72   1.0000      -5.653750      -153.8464
  73   1.0000      -5.653414      -153.8372
  74   1.0000      -5.653318      -153.8346
  75   1.0000      -5.653065      -153.8277
  76   1.0000      -5.652169      -153.8033
  77   1.0000      -5.651816      -153.7937
  78   1.0000      -5.651700      -153.7906
  79   1.0000      -5.651398      -153.7824
  80   1.0000      -2.399441       -65.2921
  81   1.0000      -1.466328       -39.9008
  82   1.0000      -1.411590       -38.4113
  83   1.0000      -1.411427       -38.4069
  84   1.0000      -0.711486       -19.3605
  85   1.0000      -0.709640       -19.3103
  86   1.0000      -0.687286       -18.7020
  87   1.0000      -0.685740       -18.6599
  88   1.0000      -0.658275       -17.9126
  89   1.0000      -0.633481       -17.2379
  90   1.0000      -0.631432       -17.1821
  91   1.0000      -0.618075       -16.8187
  92   1.0000      -0.617406       -16.8005
  93   1.0000      -0.575948       -15.6723
  94   1.0000      -0.574571       -15.6349
  95   1.0000      -0.574244       -15.6260
  96   1.0000      -0.573094       -15.5947
  97   1.0000      -0.498607       -13.5678
  98   1.0000      -0.496618       -13.5137
  99   1.0000      -0.496057       -13.4984
 100   1.0000      -0.495073       -13.4716
 101   1.0000      -0.480914       -13.0863
 102   1.0000      -0.478064       -13.0088
 103   1.0000      -0.446794       -12.1579
 104   1.0000      -0.441613       -12.0169
 105   1.0000      -0.416455       -11.3323
 106   1.0000      -0.411552       -11.1989
 107   1.0000      -0.355501        -9.6737
 108   1.0000      -0.354475        -9.6458
 109   1.0000      -0.334983        -9.1153
 110   1.0000      -0.326814        -8.8931
 111   1.0000      -0.318368        -8.6632
 112   1.0000      -0.313935        -8.5426
 113   1.0000      -0.304726        -8.2920
 114   1.0000      -0.303776        -8.2662
 115   1.0000      -0.292594        -7.9619
 116   1.0000      -0.281514        -7.6604
 117   1.0000      -0.261294        -7.1102
 118   1.0000      -0.257050        -6.9947
 119   1.0000      -0.256811        -6.9882
 120   1.0000      -0.251293        -6.8380
 121   1.0000      -0.236291        -6.4298
 122   1.0000      -0.234460        -6.3800
 123   1.0000      -0.230755        -6.2792
 124   1.0000      -0.221798        -6.0354
 125   1.0000      -0.218420        -5.9435
 126   1.0000      -0.215811        -5.8725
 127   1.0000      -0.214016        -5.8237
 128   1.0000      -0.209813        -5.7093
 129   1.0000      -0.191800        -5.2191
 130   1.0000      -0.185905        -5.0587
 131   1.0000      -0.185176        -5.0389
 132   1.0000      -0.179742        -4.8910
 133   1.0000      -0.178558        -4.8588
 134   1.0000      -0.159200        -4.3321
 135   1.0000      -0.151942        -4.1346
 136   1.0000      -0.147318        -4.0087
 137   1.0000      -0.135363        -3.6834
 138   1.0000      -0.133389        -3.6297
 139   1.0000      -0.132239        -3.5984
 140   1.0000      -0.124701        -3.3933
 141   1.0000      -0.121146        -3.2966
 142   1.0000      -0.115654        -3.1471
 143   1.0000      -0.111492        -3.0339
 144   1.0000      -0.100373        -2.7313
 145   1.0000      -0.098885        -2.6908
 146   1.0000      -0.097644        -2.6570
 147   1.0000      -0.095372        -2.5952
 148   1.0000      -0.071102        -1.9348
 149   1.0000      -0.068778        -1.8715
 150   1.0000      -0.067611        -1.8398
 151   1.0000      -0.050107        -1.3635
 152   1.0000      -0.045059        -1.2261
 153   1.0000      -0.038076        -1.0361
 154   1.0000      -0.036966        -1.0059
 155   1.0000      -0.031813        -0.8657
 156   1.0000      -0.026450        -0.7197
 157   1.0000      -0.016004        -0.4355
 158   1.0000       0.020223         0.5503
 159   1.0000       0.039684         1.0799
 160   0.0000       0.134068         3.6482
 161   0.0000       0.136743         3.7210
 162   0.0000       0.142138         3.8678
 163   0.0000       0.155894         4.2421
 164   0.0000       0.162540         4.4229

MULLIKEN ATOMIC CHARGES AND SPIN POPULATIONS
--------------------------------------------
   0 V :    0.470897    1.210706
   1 S :   -0.290807   -0.022305
   2 S :   -0.289575   -0.025257
   3 S :   -0.286901   -0.023309
   4 S :   -0.285387   -0.025718
   5 O :   -0.467503   -0.146851
   6 C :   -0.077383    0.009694
   7 C :   -0.084437    0.008047
   8 C :   -0.086328    0.007730
   9 C :   -0.082990    0.007380
  10 S :    0.099660   -0.000585
  11 S :    0.101083   -0.000630
  12 S :    0.100190   -0.000388
  13 S :    0.102077   -0.000341
  14 C :   -0.213417    0.001530
  15 C :   -0.210381    0.000983
  16 C :   -0.191726   -0.000085
  17 C :   -0.192966   -0.000397
  18 S :    0.008945   -0.000113
  19 S :    0.009451   -0.000112
  20 S :   -0.021910   -0.000068
  21 S :    0.037514   -0.000071
  22 C :   -0.289880    0.000002
  23 C :   -0.281651   -0.000004
  24 C :   -0.131877   -0.000012
  25 H :    0.140323   -0.000001
  26 H :    0.097526   -0.000002
  27 H :    0.065616   -0.000002
  28 H :    0.083414   -0.000001
  29 H :    0.091784   -0.000007
  30 H :    0.149000   -0.000001
  31 C :   -0.299993    0.000194
  32 C :   -0.300910    0.000189
  33 C :   -0.157711   -0.000238
  34 H :    0.142192   -0.000017
  35 H :    0.113547    0.000020
  36 H :    0.092279    0.000023
  37 H :    0.082782    0.000015
  38 H :    0.113408    0.000021
  39 H :    0.142045   -0.000018
Sum of atomic charges         :   -2.0000000

LOEWDIN ATOMIC CHARGES AND SPIN POPULATIONS
-------------------------------------------
   0 V :   -0.155926    1.164090
   1 S :    0.079800   -0.014361
   2 S :    0.079455   -0.016118
   3 S :    0.082718   -0.015215
   4 S :    0.083364   -0.016342
   5 O :   -0.318797   -0.131754
   6 C :   -0.549949    0.009060
   7 C :   -0.552106    0.007948
   8 C :   -0.553149    0.008148
   9 C :   -0.551020    0.007656
  10 S :    0.471324   -0.000901
  11 S :    0.472293   -0.000951
  12 S :    0.470331   -0.000826
  13 S :    0.474831   -0.000824
  14 C :   -0.465081    0.000164
  15 C :   -0.464676   -0.000081
  16 C :   -0.622640    0.000471
  17 C :   -0.623821    0.000084
  18 S :    0.358720   -0.000090
  19 S :    0.360276   -0.000087
  20 S :    0.342105   -0.000073
  21 S :    0.383024   -0.000074
  22 C :   -0.310232   -0.000005
  23 C :   -0.283850   -0.000013
  24 C :   -0.192943   -0.000001
  25 H :    0.065239   -0.000002
  26 H :    0.064044   -0.000002
  27 H :    0.067171   -0.000003
  28 H :    0.064823   -0.000001
  29 H :    0.056694   -0.000003
  30 H :    0.062759   -0.000001
  31 C :   -0.284103    0.000043
  32 C :   -0.283714    0.000036
  33 C :   -0.176316    0.000007
  34 H :    0.062112   -0.000001
  35 H :    0.053517    0.000008
  36 H :    0.060251    0.000004
  37 H :    0.057823    0.000002
  38 H :    0.053630    0.000009
  39 H :    0.062021   -0.000000

  Mayer bond orders larger than 0.100000
B(  0-V ,  1-S ) :   0.7704 B(  0-V ,  2-S ) :   0.7720 B(  0-V ,  3-S ) :   0.7644
B(  0-V ,  4-S ) :   0.7792 B(  0-V ,  5-O ) :   2.1488 B(  1-S ,  8-C ) :   1.1040
B(  2-S ,  6-C ) :   1.1039 B(  3-S ,  9-C ) :   1.1082 B(  4-S ,  7-C ) :   1.1046
B(  6-C ,  7-C ) :   1.6845 B(  6-C , 10-S ) :   0.9351 B(  7-C , 11-S ) :   0.9391
B(  8-C ,  9-C ) :   1.6961 B(  8-C , 13-S ) :   0.9345 B(  9-C , 12-S ) :   0.9369
B( 10-S , 14-C ) :   1.2485 B( 11-S , 14-C ) :   1.2482 B( 12-S , 15-C ) :   1.2463
B( 13-S , 15-C ) :   1.2490 B( 14-C , 16-C ) :   1.4518 B( 15-C , 17-C ) :   1.4500
B( 16-C , 18-S ) :   1.0881 B( 16-C , 19-S ) :   1.0896 B( 17-C , 20-S ) :   1.0709
B( 17-C , 21-S ) :   1.0866 B( 18-S , 32-C ) :   0.9918 B( 19-S , 31-C ) :   0.9920
B( 20-S , 23-C ) :   0.9490 B( 21-S , 22-C ) :   0.9779 B( 22-C , 24-C ) :   0.8594
B( 22-C , 25-H ) :   0.9563 B( 22-C , 26-H ) :   0.9629 B( 23-C , 24-C ) :   0.9552
B( 23-C , 29-H ) :   0.9643 B( 23-C , 30-H ) :   0.9732 B( 24-C , 27-H ) :   0.9610
B( 24-C , 28-H ) :   0.9609 B( 31-C , 33-C ) :   0.9134 B( 31-C , 38-H ) :   0.9656
B( 31-C , 39-H ) :   0.9658 B( 32-C , 33-C ) :   0.9132 B( 32-C , 34-H ) :   0.9658
B( 32-C , 35-H ) :   0.9656 B( 33-C , 36-H ) :   0.9718 B( 33-C , 37-H ) :   0.9624

FINAL SINGLE POINT ENERGY     -6337.656563410016

DIPOLE MOMENT
-------------
                                X             Y             Z
Electronic contribution:      0.26594     -10.42225      -8.87107
Nuclear contribution   :     -0.17931      11.60266       9.69298
                        -----------------------------------------
Total Dipole Moment    :      0.08662       1.18041       0.82191
                        -----------------------------------------
Magnitude (a.u.)       :      1.44097
Magnitude (Debye)      :      3.66266

Rotational constants in cm-1:     0.010759     0.000804     0.000783
Rotational constants in MHz :   322.542162    24.115991    23.486336

                             ****ORCA TERMINATED NORMALLY****
TOTAL RUN TIME: 0 days 1 hours 6 minutes 42 seconds 235 msec
