                         Program Version 5.0.4 -  RELEASE  -
|  1> ! nofrozencore ReducedPop printbasis
|  2> ! B3LYP TZVP
|  3>
|  4> %basis
|  5> newgto V "CP(PPP)" end
|  6> end
|  7>
|  8> %pal
|  9> nprocs 6
| 10> end
| 11>
| 12> % sym SymThresh 1e-2 end
| 13> * xyz -2 2
| 14> V -0.31994847811860083 -1.0659395631642752 -0.01628309331010019
| 15> S -2.4383415545170513 0.0574371545929018 0.593329382257142
| 16> S -0.6914078960924681 -0.13381936946071782 -2.2788477646405263
| 17> S 0.3649048973590281 -0.6534744836892047 2.3276583883552426
| 18> S 2.081177534349344 -0.7567357865069335 -0.48851498061402115
| 19> O -0.6315044342231881 -2.618571984062213 -0.14506406741484196
| 20> C 0.9103338817825848 -0.3888376131563506 -2.959523499783964
| 21> C 2.022302146680763 -0.6351755340185438 -2.2408391095133617
| 22> C -2.2560831776937254 0.20449732888564198 2.333836922428605
| 23> C -1.1382393822925072 -0.07604630751121748 3.023481044069779
| 24> S 1.1280789990131266 -0.24363136335350588 -4.737460598276049
| 25> S 3.55865455965845 -0.7661584736184031 -3.1599643671645787
| 26> S -1.1918096920373322 0.2087604219427597 4.792727806164477
| 27> S -3.649336948618336 0.8189859442032987 3.2812000419188774
| 28> C 2.87848728214599 -0.4770190564790796 -4.763213072844276
| 29> C -2.845242208216094 0.8734134239267946 4.8733346264117845
| 30> C 3.6289096499777154 -0.4596161199658776 -5.907044468874102
| 31> C -3.453088963794129 1.2793222839241187 6.02746260704605
| 32> S 2.8957978109550715 -0.20902589659086282 -7.511897389195369
| 33> S 5.396466842859653 -0.6851120159395064 -5.870403125430201
| 34> S -5.074616572705611 2.027462774306366 6.042645263514026
| 35> S -2.5683876030606703 1.4224099517151885 7.572733011832047
| 36> C -2.645571721573361 3.0048495564065796 7.799825621636009
| 37> C -4.7072047343074 3.4993538856820203 6.546925836081707
| 38> C -3.9594432013676255 3.690976909428786 7.812381504917128
| 39> H -2.034142690857033 3.5306141162808564 7.053674406047976
| 40> H -2.155915208263861 3.171382532845409 8.764317458477052
| 41> H -3.66169231453642 4.807775805884809 7.761901195301998
| 42> H -4.57602334088105 3.5212052806581347 8.76190957685664
| 43> H -5.6704901552242255 4.011956453453577 6.630703404870129
| 44> H -4.141550233076317 4.040051244165934 5.7758090809223255
| 45> C 5.489447914395322 -2.2723560179710116 -6.875748735587768
| 46> C 3.350844628416989 -1.8713414465822624 -8.27307054423407
| 47> C 4.864596997788204 -2.136137133243394 -8.272749711422719
| 48> H 2.810661747906262 -2.6466995520043377 -7.726033915936272
| 49> H 2.96790354509815 -1.8383159577799306 -9.295975833793648
| 50> H 5.363327088880444 -1.3167440236638026 -8.801895886839885
| 51> H 5.063583742651523 -3.0571761055719806 -8.8406221399281
| 52> H 6.55419152866326 -2.5056116417883674 -6.953494986495594
| 53> H 5.003907181164093 -3.0610200792273288 -6.297331170050574
| 54> *
| 55>
| 56> % eprnmr
| 57> gtensor true
| 58> Nuclei = all H {aiso,adip,aorb,fgrad,rho}
| 59> Nuclei = all V {aiso,adip,aorb,fgrad,rho}
| 60> end
| 61>
| 62>                          ****END OF INPUT****

CARTESIAN COORDINATES (ANGSTROEM)
---------------------------------
  V     -0.318076   -1.063190   -0.018190
  S     -2.436469    0.060186    0.591423
  S     -0.689536   -0.131070   -2.280754
  S      0.366777   -0.650725    2.325752
  S      2.083050   -0.753987   -0.490421
  O     -0.629632   -2.615823   -0.146971
  C      0.912206   -0.386088   -2.961430
  C      2.024174   -0.632426   -2.242746
  C     -2.254211    0.207246    2.331930
  C     -1.136367   -0.073297    3.021575
  S      1.129951   -0.240882   -4.739367
  S      3.560527   -0.763409   -3.161871
  S     -1.189937    0.211510    4.790821
  S     -3.647465    0.821735    3.279294
  C      2.880360   -0.474270   -4.765120
  C     -2.843370    0.876163    4.871428
  C      3.630782   -0.456867   -5.908951
  C     -3.451217    1.282071    6.025556
  S      2.897670   -0.206277   -7.513804
  S      5.398339   -0.682363   -5.872310
  S     -5.072744    2.030212    6.040739
  S     -2.566515    1.425159    7.570827
  C     -2.643699    3.007599    7.797919
  C     -4.705332    3.502103    6.545019
  C     -3.957571    3.693726    7.810475
  H     -2.032270    3.533363    7.051768
  H     -2.154043    3.174132    8.762411
  H     -3.659820    4.810525    7.759995
  H     -4.574151    3.523954    8.760003
  H     -5.668618    4.014706    6.628797
  H     -4.139678    4.042800    5.773903
  C      5.491320   -2.269607   -6.877655
  C      3.352717   -1.868592   -8.274977
  C      4.866469   -2.133388   -8.274656
  H      2.812534   -2.643950   -7.727940
  H      2.969776   -1.835567   -9.297882
  H      5.365199   -1.313995   -8.803802
  H      5.065456   -3.054427   -8.842529
  H      6.556064   -2.502862   -6.955401
  H      5.005779   -3.058271   -6.299238

 Total Charge           Charge          ....   -2
 Multiplicity           Mult            ....    2
 Number of Electrons    NEL             ....  321
 Basis Dimension        Dim             ....  681

ORBITAL ENERGIES
----------------
                 SPIN UP ORBITALS
  NO   OCC          E(Eh)            E(eV)
   0   1.0000    -196.674601     -5351.7880
   1   1.0000     -88.733790     -2414.5692
   2   1.0000     -88.733784     -2414.5690
   3   1.0000     -88.730198     -2414.4714
   4   1.0000     -88.730022     -2414.4667
   5   1.0000     -88.729565     -2414.4542
   6   1.0000     -88.729488     -2414.4521
   7   1.0000     -88.723674     -2414.2939
   8   1.0000     -88.723669     -2414.2938
   9   1.0000     -88.639483     -2412.0030
  10   1.0000     -88.639477     -2412.0028
  11   1.0000     -88.639305     -2411.9981
  12   1.0000     -88.638971     -2411.9890
  13   1.0000     -22.049991      -600.0108
  14   1.0000     -18.889903      -514.0204
  15   1.0000     -18.556441      -504.9464
  16   1.0000     -18.551267      -504.8056
  17   1.0000     -18.551164      -504.8028
  18   1.0000     -10.077735      -274.2291
  19   1.0000     -10.075427      -274.1663
  20   1.0000     -10.064956      -273.8814
  21   1.0000     -10.064817      -273.8776
  22   1.0000     -10.052461      -273.5414
  23   1.0000     -10.052286      -273.5366
  24   1.0000     -10.048901      -273.4445
  25   1.0000     -10.048847      -273.4430
  26   1.0000     -10.048272      -273.4274
  27   1.0000     -10.046130      -273.3691
  28   1.0000     -10.018103      -272.6065
  29   1.0000     -10.017169      -272.5810
  30   1.0000     -10.017139      -272.5802
  31   1.0000     -10.016330      -272.5582
  32   1.0000      -7.786741      -211.8880
  33   1.0000      -7.786716      -211.8873
  34   1.0000      -7.783708      -211.8055
  35   1.0000      -7.783645      -211.8038
  36   1.0000      -7.783466      -211.7989
  37   1.0000      -7.783334      -211.7953
  38   1.0000      -7.782595      -211.7752
  39   1.0000      -7.782553      -211.7740
  40   1.0000      -7.693807      -209.3591
  41   1.0000      -7.693785      -209.3585
  42   1.0000      -7.693536      -209.3517
  43   1.0000      -7.693358      -209.3469
  44   1.0000      -5.751752      -156.5131
  45   1.0000      -5.751733      -156.5126
  46   1.0000      -5.748430      -156.4227
  47   1.0000      -5.748405      -156.4220
  48   1.0000      -5.748399      -156.4219
  49   1.0000      -5.748392      -156.4217
  50   1.0000      -5.748366      -156.4210
  51   1.0000      -5.748268      -156.4183
  52   1.0000      -5.747621      -156.4007
  53   1.0000      -5.747586      -156.3998
  54   1.0000      -5.744234      -156.3086
  55   1.0000      -5.744192      -156.3074
  56   1.0000      -5.743972      -156.3014
  57   1.0000      -5.743838      -156.2978
  58   1.0000      -5.743147      -156.2790
  59   1.0000      -5.743095      -156.2776
  60   1.0000      -5.741523      -156.2348
  61   1.0000      -5.741488      -156.2338
  62   1.0000      -5.739307      -156.1745
  63   1.0000      -5.739169      -156.1707
  64   1.0000      -5.738398      -156.1497
  65   1.0000      -5.738357      -156.1486
  66   1.0000      -5.738334      -156.1480
  67   1.0000      -5.738309      -156.1473
  68   1.0000      -5.659109      -153.9922
  69   1.0000      -5.659103      -153.9920
  70   1.0000      -5.658874      -153.9858
  71   1.0000      -5.658656      -153.9799
  72   1.0000      -5.652461      -153.8113
  73   1.0000      -5.652438      -153.8106
  74   1.0000      -5.652210      -153.8045
  75   1.0000      -5.652033      -153.7996
  76   1.0000      -5.651131      -153.7751
  77   1.0000      -5.651111      -153.7745
  78   1.0000      -5.650834      -153.7670
  79   1.0000      -5.650666      -153.7624
  80   1.0000      -2.443632       -66.4946
  81   1.0000      -1.484936       -40.4072
  82   1.0000      -1.473268       -40.0896
  83   1.0000      -1.472453       -40.0675
  84   1.0000      -0.747005       -20.3270
  85   1.0000      -0.707577       -19.2542
  86   1.0000      -0.691808       -18.8251
  87   1.0000      -0.682960       -18.5843
  88   1.0000      -0.675993       -18.3947
  89   1.0000      -0.649507       -17.6740
  90   1.0000      -0.631794       -17.1920
  91   1.0000      -0.630807       -17.1651
  92   1.0000      -0.611543       -16.6409
  93   1.0000      -0.578774       -15.7492
  94   1.0000      -0.574325       -15.6282
  95   1.0000      -0.573357       -15.6018
  96   1.0000      -0.572372       -15.5750
  97   1.0000      -0.511473       -13.9179
  98   1.0000      -0.496601       -13.5132
  99   1.0000      -0.494103       -13.4452
 100   1.0000      -0.489370       -13.3164
 101   1.0000      -0.478863       -13.0305
 102   1.0000      -0.475252       -12.9323
 103   1.0000      -0.447039       -12.1645
 104   1.0000      -0.441630       -12.0174
 105   1.0000      -0.415176       -11.2975
 106   1.0000      -0.410327       -11.1656
 107   1.0000      -0.379353       -10.3227
 108   1.0000      -0.352229        -9.5846
 109   1.0000      -0.335870        -9.1395
 110   1.0000      -0.325482        -8.8568
 111   1.0000      -0.325208        -8.8493
 112   1.0000      -0.315953        -8.5975
 113   1.0000      -0.303650        -8.2627
 114   1.0000      -0.302806        -8.2398
 115   1.0000      -0.299471        -8.1490
 116   1.0000      -0.291599        -7.9348
 117   1.0000      -0.279907        -7.6167
 118   1.0000      -0.257854        -7.0166
 119   1.0000      -0.256051        -6.9675
 120   1.0000      -0.253907        -6.9092
 121   1.0000      -0.246835        -6.7167
 122   1.0000      -0.241741        -6.5781
 123   1.0000      -0.233089        -6.3427
 124   1.0000      -0.229161        -6.2358
 125   1.0000      -0.219134        -5.9629
 126   1.0000      -0.217131        -5.9084
 127   1.0000      -0.214052        -5.8246
 128   1.0000      -0.207259        -5.6398
 129   1.0000      -0.192597        -5.2408
 130   1.0000      -0.186754        -5.0818
 131   1.0000      -0.185215        -5.0400
 132   1.0000      -0.184162        -5.0113
 133   1.0000      -0.178153        -4.8478
 134   1.0000      -0.159180        -4.3315
 135   1.0000      -0.150050        -4.0831
 136   1.0000      -0.139943        -3.8080
 137   1.0000      -0.138335        -3.7643
 138   1.0000      -0.134854        -3.6696
 139   1.0000      -0.131346        -3.5741
 140   1.0000      -0.125182        -3.4064
 141   1.0000      -0.120280        -3.2730
 142   1.0000      -0.113172        -3.0796
 143   1.0000      -0.109499        -2.9796
 144   1.0000      -0.099278        -2.7015
 145   1.0000      -0.097554        -2.6546
 146   1.0000      -0.096230        -2.6185
 147   1.0000      -0.090646        -2.4666
 148   1.0000      -0.074242        -2.0202
 149   1.0000      -0.067358        -1.8329
 150   1.0000      -0.063846        -1.7373
 151   1.0000      -0.051938        -1.4133
 152   1.0000      -0.045340        -1.2338
 153   1.0000      -0.037444        -1.0189
 154   1.0000      -0.036747        -0.9999
 155   1.0000      -0.031193        -0.8488
 156   1.0000      -0.024541        -0.6678
 157   1.0000      -0.018813        -0.5119
 158   1.0000      -0.015127        -0.4116
 159   1.0000       0.020767         0.5651
 160   1.0000       0.041625         1.1327
 161   0.0000       0.135431         3.6853
 162   0.0000       0.140077         3.8117
 163   0.0000       0.158740         4.3195
 164   0.0000       0.162317         4.4169
 165   0.0000       0.167178         4.5491

                 SPIN DOWN ORBITALS
  NO   OCC          E(Eh)            E(eV)
   0   1.0000    -196.674748     -5351.7920
   1   1.0000     -88.733791     -2414.5692
   2   1.0000     -88.733785     -2414.5690
   3   1.0000     -88.730206     -2414.4717
   4   1.0000     -88.730031     -2414.4669
   5   1.0000     -88.729573     -2414.4544
   6   1.0000     -88.729496     -2414.4523
   7   1.0000     -88.723674     -2414.2939
   8   1.0000     -88.723669     -2414.2938
   9   1.0000     -88.639619     -2412.0067
  10   1.0000     -88.639617     -2412.0066
  11   1.0000     -88.639446     -2412.0019
  12   1.0000     -88.639109     -2411.9928
  13   1.0000     -22.035065      -599.6046
  14   1.0000     -18.893676      -514.1231
  15   1.0000     -18.551179      -504.8032
  16   1.0000     -18.535237      -504.3694
  17   1.0000     -18.535052      -504.3644
  18   1.0000     -10.077735      -274.2291
  19   1.0000     -10.075422      -274.1662
  20   1.0000     -10.064955      -273.8813
  21   1.0000     -10.064816      -273.8776
  22   1.0000     -10.052461      -273.5414
  23   1.0000     -10.052286      -273.5366
  24   1.0000     -10.048901      -273.4445
  25   1.0000     -10.048847      -273.4430
  26   1.0000     -10.048260      -273.4271
  27   1.0000     -10.046126      -273.3690
  28   1.0000     -10.017865      -272.6000
  29   1.0000     -10.016945      -272.5749
  30   1.0000     -10.016927      -272.5744
  31   1.0000     -10.016120      -272.5525
  32   1.0000      -7.786742      -211.8880
  33   1.0000      -7.786717      -211.8873
  34   1.0000      -7.783708      -211.8055
  35   1.0000      -7.783646      -211.8038
  36   1.0000      -7.783476      -211.7991
  37   1.0000      -7.783344      -211.7956
  38   1.0000      -7.782605      -211.7754
  39   1.0000      -7.782562      -211.7743
  40   1.0000      -7.693938      -209.3627
  41   1.0000      -7.693912      -209.3620
  42   1.0000      -7.693667      -209.3553
  43   1.0000      -7.693486      -209.3504
  44   1.0000      -5.751753      -156.5132
  45   1.0000      -5.751734      -156.5126
  46   1.0000      -5.748431      -156.4228
  47   1.0000      -5.748410      -156.4222
  48   1.0000      -5.748406      -156.4221
  49   1.0000      -5.748393      -156.4217
  50   1.0000      -5.748367      -156.4210
  51   1.0000      -5.748279      -156.4186
  52   1.0000      -5.747632      -156.4010
  53   1.0000      -5.747596      -156.4000
  54   1.0000      -5.744235      -156.3086
  55   1.0000      -5.744193      -156.3074
  56   1.0000      -5.743986      -156.3018
  57   1.0000      -5.743851      -156.2981
  58   1.0000      -5.743162      -156.2794
  59   1.0000      -5.743110      -156.2780
  60   1.0000      -5.741524      -156.2348
  61   1.0000      -5.741489      -156.2339
  62   1.0000      -5.739315      -156.1747
  63   1.0000      -5.739178      -156.1710
  64   1.0000      -5.738398      -156.1498
  65   1.0000      -5.738363      -156.1488
  66   1.0000      -5.738335      -156.1480
  67   1.0000      -5.738316      -156.1475
  68   1.0000      -5.659248      -153.9960
  69   1.0000      -5.659245      -153.9959
  70   1.0000      -5.659016      -153.9896
  71   1.0000      -5.658797      -153.9837
  72   1.0000      -5.652825      -153.8212
  73   1.0000      -5.652810      -153.8208
  74   1.0000      -5.652593      -153.8149
  75   1.0000      -5.652392      -153.8094
  76   1.0000      -5.651218      -153.7775
  77   1.0000      -5.651215      -153.7774
  78   1.0000      -5.650928      -153.7696
  79   1.0000      -5.650771      -153.7653
  80   1.0000      -2.398765       -65.2737
  81   1.0000      -1.465662       -39.8827
  82   1.0000      -1.410904       -38.3926
  83   1.0000      -1.410752       -38.3885
  84   1.0000      -0.747006       -20.3271
  85   1.0000      -0.707544       -19.2533
  86   1.0000      -0.691749       -18.8235
  87   1.0000      -0.682910       -18.5829
  88   1.0000      -0.675995       -18.3947
  89   1.0000      -0.657599       -17.8942
  90   1.0000      -0.631740       -17.1905
  91   1.0000      -0.630731       -17.1631
  92   1.0000      -0.611543       -16.6409
  93   1.0000      -0.578713       -15.7476
  94   1.0000      -0.574295       -15.6274
  95   1.0000      -0.573333       -15.6012
  96   1.0000      -0.572287       -15.5727
  97   1.0000      -0.511487       -13.9183
  98   1.0000      -0.496640       -13.5143
  99   1.0000      -0.494123       -13.4458
 100   1.0000      -0.489471       -13.3192
 101   1.0000      -0.479064       -13.0360
 102   1.0000      -0.475443       -12.9375
 103   1.0000      -0.447061       -12.1651
 104   1.0000      -0.441691       -12.0190
 105   1.0000      -0.415176       -11.2975
 106   1.0000      -0.410423       -11.1682
 107   1.0000      -0.379353       -10.3227
 108   1.0000      -0.352218        -9.5843
 109   1.0000      -0.335860        -9.1392
 110   1.0000      -0.325466        -8.8564
 111   1.0000      -0.325193        -8.8489
 112   1.0000      -0.315935        -8.5970
 113   1.0000      -0.303606        -8.2615
 114   1.0000      -0.302802        -8.2397
 115   1.0000      -0.299426        -8.1478
 116   1.0000      -0.291593        -7.9346
 117   1.0000      -0.279835        -7.6147
 118   1.0000      -0.257743        -7.0135
 119   1.0000      -0.256008        -6.9663
 120   1.0000      -0.253854        -6.9077
 121   1.0000      -0.246815        -6.7162
 122   1.0000      -0.241677        -6.5764
 123   1.0000      -0.233066        -6.3420
 124   1.0000      -0.229115        -6.2345
 125   1.0000      -0.218575        -5.9477
 126   1.0000      -0.217074        -5.9069
 127   1.0000      -0.213902        -5.8206
 128   1.0000      -0.207163        -5.6372
 129   1.0000      -0.190900        -5.1946
 130   1.0000      -0.186702        -5.0804
 131   1.0000      -0.184877        -5.0307
 132   1.0000      -0.183892        -5.0039
 133   1.0000      -0.178022        -4.8442
 134   1.0000      -0.158560        -4.3146
 135   1.0000      -0.149908        -4.0792
 136   1.0000      -0.139819        -3.8047
 137   1.0000      -0.137953        -3.7539
 138   1.0000      -0.134338        -3.6555
 139   1.0000      -0.131167        -3.5692
 140   1.0000      -0.124497        -3.3877
 141   1.0000      -0.119965        -3.2644
 142   1.0000      -0.114954        -3.1281
 143   1.0000      -0.111079        -3.0226
 144   1.0000      -0.099273        -2.7013
 145   1.0000      -0.097871        -2.6632
 146   1.0000      -0.096403        -2.6233
 147   1.0000      -0.090756        -2.4696
 148   1.0000      -0.070408        -1.9159
 149   1.0000      -0.067358        -1.8329
 150   1.0000      -0.063840        -1.7372
 151   1.0000      -0.049350        -1.3429
 152   1.0000      -0.044396        -1.2081
 153   1.0000      -0.037484        -1.0200
 154   1.0000      -0.036187        -0.9847
 155   1.0000      -0.031246        -0.8502
 156   1.0000      -0.025559        -0.6955
 157   1.0000      -0.015337        -0.4173
 158   1.0000       0.021064         0.5732
 159   1.0000       0.040518         1.1026
 160   0.0000       0.135439         3.6855
 161   0.0000       0.140074         3.8116
 162   0.0000       0.155557         4.2329
 163   0.0000       0.159864         4.3501
 164   0.0000       0.163160         4.4398

MULLIKEN ATOMIC CHARGES AND SPIN POPULATIONS
--------------------------------------------
   0 V :    0.470493    1.210357
   1 S :   -0.291167   -0.022357
   2 S :   -0.289658   -0.025199
   3 S :   -0.289426   -0.023302
   4 S :   -0.285207   -0.025649
   5 O :   -0.467735   -0.146464
   6 C :   -0.077737    0.009733
   7 C :   -0.084938    0.008013
   8 C :   -0.080975    0.007642
   9 C :   -0.081403    0.007347
  10 S :    0.101036   -0.000596
  11 S :    0.102327   -0.000635
  12 S :    0.092474   -0.000384
  13 S :    0.091488   -0.000338
  14 C :   -0.210792    0.001584
  15 C :   -0.252853    0.000978
  16 C :   -0.190587   -0.000095
  17 C :   -0.166667   -0.000445
  18 S :    0.004551   -0.000117
  19 S :    0.005102   -0.000116
  20 S :    0.041867   -0.000070
  21 S :    0.041467   -0.000073
  22 C :   -0.316395    0.000010
  23 C :   -0.315253    0.000010
  24 C :   -0.087874   -0.000010
  25 H :    0.126729   -0.000003
  26 H :    0.110958   -0.000006
  27 H :    0.063906    0.000002
  28 H :    0.070452   -0.000002
  29 H :    0.110381   -0.000007
  30 H :    0.126032   -0.000003
  31 C :   -0.299475    0.000198
  32 C :   -0.300398    0.000194
  33 C :   -0.163934   -0.000236
  34 H :    0.143550   -0.000017
  35 H :    0.113606    0.000018
  36 H :    0.095076    0.000026
  37 H :    0.084083    0.000013
  38 H :    0.113449    0.000019
  39 H :    0.143447   -0.000018
Sum of atomic charges         :   -2.0000000

LOEWDIN ATOMIC CHARGES AND SPIN POPULATIONS
-------------------------------------------
   0 V :   -0.155709    1.163766
   1 S :    0.080549   -0.014391
   2 S :    0.079359   -0.016056
   3 S :    0.081847   -0.015179
   4 S :    0.083352   -0.016282
   5 O :   -0.319028   -0.131391
   6 C :   -0.549615    0.009068
   7 C :   -0.551802    0.007954
   8 C :   -0.554754    0.008039
   9 C :   -0.554700    0.007593
  10 S :    0.472541   -0.000907
  11 S :    0.473502   -0.000956
  12 S :    0.462653   -0.000815
  13 S :    0.461850   -0.000824
  14 C :   -0.466671    0.000171
  15 C :   -0.451659   -0.000114
  16 C :   -0.625251    0.000484
  17 C :   -0.597132    0.000073
  18 S :    0.349291   -0.000092
  19 S :    0.351191   -0.000089
  20 S :    0.446366   -0.000072
  21 S :    0.445296   -0.000075
  22 C :   -0.374850   -0.000004
  23 C :   -0.375625   -0.000004
  24 C :   -0.183501   -0.000002
  25 H :    0.053614   -0.000003
  26 H :    0.058765   -0.000004
  27 H :    0.064055   -0.000001
  28 H :    0.060106   -0.000001
  29 H :    0.058788   -0.000004
  30 H :    0.053308   -0.000003
  31 C :   -0.275363    0.000051
  32 C :   -0.274470    0.000044
  33 C :   -0.176849    0.000006
  34 H :    0.062647   -0.000000
  35 H :    0.053263    0.000008
  36 H :    0.061066    0.000005
  37 H :    0.057738    0.000002
  38 H :    0.053337    0.000008
  39 H :    0.062497   -0.000000

  Mayer bond orders larger than 0.100000
B(  0-V ,  1-S ) :   0.7715 B(  0-V ,  2-S ) :   0.7713 B(  0-V ,  3-S ) :   0.7649
B(  0-V ,  4-S ) :   0.7787 B(  0-V ,  5-O ) :   2.1488 B(  1-S ,  8-C ) :   1.1031
B(  2-S ,  6-C ) :   1.1043 B(  3-S ,  9-C ) :   1.1056 B(  4-S ,  7-C ) :   1.1047
B(  6-C ,  7-C ) :   1.6836 B(  6-C , 10-S ) :   0.9354 B(  7-C , 11-S ) :   0.9393
B(  8-C ,  9-C ) :   1.6999 B(  8-C , 13-S ) :   0.9338 B(  9-C , 12-S ) :   0.9359
B( 10-S , 14-C ) :   1.2506 B( 11-S , 14-C ) :   1.2503 B( 12-S , 15-C ) :   1.2296
B( 13-S , 15-C ) :   1.2297 B( 14-C , 16-C ) :   1.4417 B( 15-C , 17-C ) :   1.5294
B( 16-C , 18-S ) :   1.0911 B( 16-C , 19-S ) :   1.0919 B( 17-C , 20-S ) :   1.0405
B( 17-C , 21-S ) :   1.0413 B( 18-S , 32-C ) :   0.9827 B( 19-S , 31-C ) :   0.9839
B( 20-S , 23-C ) :   1.1040 B( 21-S , 22-C ) :   1.1018 B( 22-C , 24-C ) :   0.9118
B( 22-C , 25-H ) :   0.9540 B( 22-C , 26-H ) :   0.9403 B( 23-C , 24-C ) :   0.9114
B( 23-C , 29-H ) :   0.9400 B( 23-C , 30-H ) :   0.9537 B( 24-C , 27-H ) :   0.9909
B( 24-C , 28-H ) :   0.9330 B( 31-C , 33-C ) :   0.9123 B( 31-C , 38-H ) :   0.9665
B( 31-C , 39-H ) :   0.9666 B( 32-C , 33-C ) :   0.9122 B( 32-C , 34-H ) :   0.9665
B( 32-C , 35-H ) :   0.9665 B( 33-C , 36-H ) :   0.9742 B( 33-C , 37-H ) :   0.9587

FINAL SINGLE POINT ENERGY     -6337.635418768694

DIPOLE MOMENT
-------------
                                X             Y             Z
Electronic contribution:     -6.03280     -11.66418       2.70495
Nuclear contribution   :      6.66948      12.99773      -2.92642
                        -----------------------------------------
Total Dipole Moment    :      0.63669       1.33355      -0.22147
                        -----------------------------------------
Magnitude (a.u.)       :      1.49425
Magnitude (Debye)      :      3.79808

Rotational constants in cm-1:     0.010919     0.000805     0.000784
Rotational constants in MHz :   327.354808    24.136750    23.494635

                             ****ORCA TERMINATED NORMALLY****
TOTAL RUN TIME: 0 days 1 hours 6 minutes 39 seconds 491 msec
