                         Program Version 5.0.4 -  RELEASE  -
|  1> ! nofrozencore ReducedPop printbasis
|  2> ! B3LYP TZVP
|  3>
|  4> %basis
|  5> newgto V "CP(PPP)" end
|  6> end
|  7>
|  8> %pal
|  9> nprocs 8
| 10> end
| 11>
| 12> % sym SymThresh 1e-2 end
| 13> * xyz -2 2
| 14> V -0.2950298678385042 -1.0719327311193616 0.022691349523129314
| 15> S -0.20431468974392553 -0.553685617922683 2.4394999077330217
| 16> S -2.3689148428245783 0.27860397664905406 -0.0003493232547926934
| 17> S 2.1788947976955884 -1.1026148857584523 0.11554589441852069
| 18> S 0.07060257405088408 -0.20537823045083092 -2.257372189482114
| 19> O -0.7763448925038561 -2.584177539552863 -0.11674990885944382
| 20> C -2.5435172515760454 0.5040739595695581 -1.7358390673829487
| 21> C -1.5643972004858842 0.31323093903939586 -2.639568889926237
| 22> C 1.5053549573111709 -0.7910030697513505 2.7742685846877952
| 23> C 2.4548900762307393 -1.006755835614564 1.84709536090015
| 24> S -4.111296491855482 1.1047760371780113 -2.3755891575171537
| 25> S -1.9609467287495268 0.7009627658124478 -4.346355545600025
| 26> S 4.1408981876531135 -1.1618659278334684 2.447508755763059
| 27> S 2.0615102894172743 -0.6959813773135728 4.480303718997229
| 28> C -3.628374322121904 1.2235514824438758 -4.073635924951051
| 29> C 3.7938400896424596 -0.8854696936472854 4.1622209450612875
| 30> C -4.455550838138025 1.6563464727702935 -5.070067937376278
| 31> C 4.751837980981453 -0.8243805513704665 5.126423302595702
| 32> S -6.147966722229757 2.1284365106498355 -4.75860061839258
| 33> S -3.9081410826956207 1.7677851793792603 -6.764826718750727
| 34> S 4.347483640106088 -0.5614614623282818 6.848871430644694
| 35> S 6.489306692801751 -1.0231875364688694 4.749457333051237
| 36> C 7.016542565654969 0.6930278477954571 5.241481174592632
| 37> C 5.2009924712691955 1.082593950714734 7.028145690761825
| 38> C 6.763231855371812 0.9365153184094512 6.787834925960295
| 39> H 6.718304612857742 1.6052314133046734 4.659008920238323
| 40> H 8.104097588840736 0.5134844886683476 5.103570834324902
| 41> H 7.095022851354041 2.0014082159845104 6.892083942858841
| 42> H 7.330885993366232 0.3135524626299418 7.498719944340801
| 43> H 5.036254917690543 1.16746121583521 8.12339629811518
| 44> H 4.825752876811969 2.014602393549102 6.527370791712328
| 45> C -5.066324557694418 0.5167747580569652 -7.493959350221659
| 46> C -6.967145320370873 0.8181716802552409 -5.78498904141214
| 47> C -6.556137544749871 0.8838186090452133 -7.277152446148872
| 48> H -6.825904698516004 -0.1954738818230095 -5.390304448652152
| 49> H -8.025416830250812 1.083302537981871 -5.685010667517699
| 50> H -6.8204414651491785 1.8401456478914728 -7.739080939478847
| 51> H -7.135059105446593 0.09246058852326285 -7.780928858074889
| 52> H -4.824500890032179 0.5817151763526125 -8.560523272963737
| 53> H -4.867324255784083 -0.5075770970285841 -7.156027114830613
| 54> *
| 55>
| 56> % eprnmr
| 57> gtensor true
| 58> Nuclei = all H {aiso,adip,aorb,fgrad,rho}
| 59> Nuclei = all V {aiso,adip,aorb,fgrad,rho}
| 60> end
| 61>
| 62>                          ****END OF INPUT****

CARTESIAN COORDINATES (ANGSTROEM)
---------------------------------
  V     -0.295759   -1.068504    0.021139
  S     -0.205044   -0.550257    2.437948
  S     -2.369644    0.282033   -0.001901
  S      2.178166   -1.099186    0.113994
  S      0.069874   -0.201949   -2.258924
  O     -0.777074   -2.580749   -0.118302
  C     -2.544246    0.507503   -1.737391
  C     -1.565126    0.316660   -2.641121
  C      1.504626   -0.787574    2.772716
  C      2.454161   -1.003327    1.845543
  S     -4.112025    1.108205   -2.377141
  S     -1.961676    0.704392   -4.347908
  S      4.140169   -1.158437    2.445957
  S      2.060781   -0.692552    4.478752
  C     -3.629103    1.226980   -4.075188
  C      3.793111   -0.882041    4.160669
  C     -4.456280    1.659775   -5.071620
  C      4.751109   -0.820952    5.124871
  S     -6.148696    2.131865   -4.760153
  S     -3.908870    1.771214   -6.766379
  S      4.346755   -0.558032    6.847319
  S      6.488578   -1.019759    4.747905
  C      7.015814    0.696457    5.239929
  C      5.200264    1.086023    7.026594
  C      6.762503    0.939944    6.786283
  H      6.717576    1.608660    4.657457
  H      8.103369    0.516913    5.102019
  H      7.094294    2.004837    6.890532
  H      7.330157    0.316981    7.497168
  H      5.035526    1.170890    8.121844
  H      4.825024    2.018031    6.525819
  C     -5.067053    0.520204   -7.495511
  C     -6.967874    0.821601   -5.786541
  C     -6.556866    0.887248   -7.278705
  H     -6.826634   -0.192045   -5.391857
  H     -8.026146    1.086732   -5.686563
  H     -6.821170    1.843575   -7.740633
  H     -7.135788    0.095890   -7.782481
  H     -4.825230    0.585144   -8.562075
  H     -4.868053   -0.504148   -7.157579

 Total Charge           Charge          ....   -2
 Multiplicity           Mult            ....    2
 Number of Electrons    NEL             ....  321
 Basis Dimension        Dim             ....  681

ORBITAL ENERGIES
----------------
                 SPIN UP ORBITALS
  NO   OCC          E(Eh)            E(eV)
   0   1.0000    -196.673978     -5351.7710
   1   1.0000     -88.736612     -2414.6460
   2   1.0000     -88.736533     -2414.6438
   3   1.0000     -88.733740     -2414.5678
   4   1.0000     -88.733716     -2414.5672
   5   1.0000     -88.728954     -2414.4376
   6   1.0000     -88.728783     -2414.4329
   7   1.0000     -88.728104     -2414.4145
   8   1.0000     -88.728015     -2414.4120
   9   1.0000     -88.638629     -2411.9797
  10   1.0000     -88.638545     -2411.9774
  11   1.0000     -88.638329     -2411.9716
  12   1.0000     -88.638057     -2411.9642
  13   1.0000     -22.049370      -599.9939
  14   1.0000     -18.888274      -513.9761
  15   1.0000     -18.555820      -504.9295
  16   1.0000     -18.550647      -504.7888
  17   1.0000     -18.550546      -504.7860
  18   1.0000     -10.074422      -274.1389
  19   1.0000     -10.073560      -274.1155
  20   1.0000     -10.072146      -274.0770
  21   1.0000     -10.072058      -274.0746
  22   1.0000     -10.065329      -273.8915
  23   1.0000     -10.065302      -273.8908
  24   1.0000     -10.060454      -273.7589
  25   1.0000     -10.053722      -273.5757
  26   1.0000     -10.046913      -273.3904
  27   1.0000     -10.046103      -273.3684
  28   1.0000     -10.016952      -272.5751
  29   1.0000     -10.016202      -272.5547
  30   1.0000     -10.016017      -272.5497
  31   1.0000     -10.015401      -272.5329
  32   1.0000      -7.789579      -211.9652
  33   1.0000      -7.789495      -211.9629
  34   1.0000      -7.787024      -211.8957
  35   1.0000      -7.787017      -211.8955
  36   1.0000      -7.782191      -211.7642
  37   1.0000      -7.782067      -211.7608
  38   1.0000      -7.781351      -211.7413
  39   1.0000      -7.781284      -211.7395
  40   1.0000      -7.692933      -209.3354
  41   1.0000      -7.692809      -209.3320
  42   1.0000      -7.692604      -209.3264
  43   1.0000      -7.692391      -209.3206
  44   1.0000      -5.754545      -156.5891
  45   1.0000      -5.754460      -156.5868
  46   1.0000      -5.752002      -156.5199
  47   1.0000      -5.751996      -156.5198
  48   1.0000      -5.751245      -156.4993
  49   1.0000      -5.751169      -156.4973
  50   1.0000      -5.748625      -156.4280
  51   1.0000      -5.748621      -156.4279
  52   1.0000      -5.747141      -156.3877
  53   1.0000      -5.747011      -156.3841
  54   1.0000      -5.746301      -156.3648
  55   1.0000      -5.746234      -156.3630
  56   1.0000      -5.744396      -156.3130
  57   1.0000      -5.744306      -156.3105
  58   1.0000      -5.742701      -156.2668
  59   1.0000      -5.742579      -156.2635
  60   1.0000      -5.741875      -156.2444
  61   1.0000      -5.741832      -156.2432
  62   1.0000      -5.741831      -156.2432
  63   1.0000      -5.741804      -156.2424
  64   1.0000      -5.738018      -156.1394
  65   1.0000      -5.737894      -156.1360
  66   1.0000      -5.737160      -156.1161
  67   1.0000      -5.737098      -156.1144
  68   1.0000      -5.658238      -153.9685
  69   1.0000      -5.658121      -153.9653
  70   1.0000      -5.657925      -153.9600
  71   1.0000      -5.657689      -153.9535
  72   1.0000      -5.651583      -153.7874
  73   1.0000      -5.651489      -153.7848
  74   1.0000      -5.651268      -153.7788
  75   1.0000      -5.651070      -153.7734
  76   1.0000      -5.650263      -153.7515
  77   1.0000      -5.650142      -153.7482
  78   1.0000      -5.649893      -153.7414
  79   1.0000      -5.649707      -153.7363
  80   1.0000      -2.442781       -66.4715
  81   1.0000      -1.483619       -40.3713
  82   1.0000      -1.472489       -40.0685
  83   1.0000      -1.471673       -40.0463
  84   1.0000      -0.707416       -19.2498
  85   1.0000      -0.705441       -19.1960
  86   1.0000      -0.682749       -18.5785
  87   1.0000      -0.678364       -18.4592
  88   1.0000      -0.647695       -17.6247
  89   1.0000      -0.629199       -17.1214
  90   1.0000      -0.625828       -17.0297
  91   1.0000      -0.615350       -16.7445
  92   1.0000      -0.612839       -16.6762
  93   1.0000      -0.573027       -15.5929
  94   1.0000      -0.572100       -15.5676
  95   1.0000      -0.571835       -15.5604
  96   1.0000      -0.570067       -15.5123
  97   1.0000      -0.495739       -13.4898
  98   1.0000      -0.494237       -13.4489
  99   1.0000      -0.493853       -13.4384
 100   1.0000      -0.491023       -13.3614
 101   1.0000      -0.477868       -13.0034
 102   1.0000      -0.475119       -12.9286
 103   1.0000      -0.445870       -12.1327
 104   1.0000      -0.442297       -12.0355
 105   1.0000      -0.415526       -11.3070
 106   1.0000      -0.410272       -11.1641
 107   1.0000      -0.358234        -9.7480
 108   1.0000      -0.356584        -9.7032
 109   1.0000      -0.320483        -8.7208
 110   1.0000      -0.318696        -8.6721
 111   1.0000      -0.314554        -8.5594
 112   1.0000      -0.311132        -8.4663
 113   1.0000      -0.302672        -8.2361
 114   1.0000      -0.299263        -8.1434
 115   1.0000      -0.290310        -7.8997
 116   1.0000      -0.286644        -7.8000
 117   1.0000      -0.254632        -6.9289
 118   1.0000      -0.253409        -6.8956
 119   1.0000      -0.251400        -6.8409
 120   1.0000      -0.244684        -6.6582
 121   1.0000      -0.241020        -6.5585
 122   1.0000      -0.236917        -6.4468
 123   1.0000      -0.224018        -6.0958
 124   1.0000      -0.222024        -6.0416
 125   1.0000      -0.219860        -5.9827
 126   1.0000      -0.214122        -5.8265
 127   1.0000      -0.211662        -5.7596
 128   1.0000      -0.211057        -5.7432
 129   1.0000      -0.191740        -5.2175
 130   1.0000      -0.188368        -5.1257
 131   1.0000      -0.186374        -5.0715
 132   1.0000      -0.185856        -5.0574
 133   1.0000      -0.182024        -4.9531
 134   1.0000      -0.158103        -4.3022
 135   1.0000      -0.152096        -4.1387
 136   1.0000      -0.146879        -3.9968
 137   1.0000      -0.133353        -3.6287
 138   1.0000      -0.131707        -3.5839
 139   1.0000      -0.129890        -3.5345
 140   1.0000      -0.122293        -3.3278
 141   1.0000      -0.119567        -3.2536
 142   1.0000      -0.111038        -3.0215
 143   1.0000      -0.106764        -2.9052
 144   1.0000      -0.098090        -2.6692
 145   1.0000      -0.097514        -2.6535
 146   1.0000      -0.096209        -2.6180
 147   1.0000      -0.094985        -2.5847
 148   1.0000      -0.073297        -1.9945
 149   1.0000      -0.068427        -1.8620
 150   1.0000      -0.067459        -1.8357
 151   1.0000      -0.051119        -1.3910
 152   1.0000      -0.044318        -1.2060
 153   1.0000      -0.037491        -1.0202
 154   1.0000      -0.035825        -0.9748
 155   1.0000      -0.030968        -0.8427
 156   1.0000      -0.023533        -0.6404
 157   1.0000      -0.018004        -0.4899
 158   1.0000      -0.014146        -0.3849
 159   1.0000       0.021683         0.5900
 160   1.0000       0.042600         1.1592
 161   0.0000       0.135338         3.6827
 162   0.0000       0.137154         3.7322
 163   0.0000       0.162349         4.4177
 164   0.0000       0.163068         4.4373
 165   0.0000       0.163128         4.4389

                 SPIN DOWN ORBITALS
  NO   OCC          E(Eh)            E(eV)
   0   1.0000    -196.674125     -5351.7750
   1   1.0000     -88.736613     -2414.6460
   2   1.0000     -88.736534     -2414.6438
   3   1.0000     -88.733741     -2414.5678
   4   1.0000     -88.733716     -2414.5672
   5   1.0000     -88.728962     -2414.4378
   6   1.0000     -88.728791     -2414.4332
   7   1.0000     -88.728112     -2414.4147
   8   1.0000     -88.728023     -2414.4123
   9   1.0000     -88.638769     -2411.9835
  10   1.0000     -88.638682     -2411.9812
  11   1.0000     -88.638471     -2411.9754
  12   1.0000     -88.638197     -2411.9680
  13   1.0000     -22.034408      -599.5867
  14   1.0000     -18.892097      -514.0801
  15   1.0000     -18.550523      -504.7854
  16   1.0000     -18.534590      -504.3518
  17   1.0000     -18.534407      -504.3468
  18   1.0000     -10.074417      -274.1388
  19   1.0000     -10.073560      -274.1155
  20   1.0000     -10.072147      -274.0770
  21   1.0000     -10.072058      -274.0746
  22   1.0000     -10.065328      -273.8915
  23   1.0000     -10.065301      -273.8908
  24   1.0000     -10.060454      -273.7589
  25   1.0000     -10.053722      -273.5757
  26   1.0000     -10.046902      -273.3901
  27   1.0000     -10.046099      -273.3683
  28   1.0000     -10.016714      -272.5686
  29   1.0000     -10.015988      -272.5489
  30   1.0000     -10.015794      -272.5436
  31   1.0000     -10.015190      -272.5272
  32   1.0000      -7.789580      -211.9652
  33   1.0000      -7.789496      -211.9630
  34   1.0000      -7.787025      -211.8957
  35   1.0000      -7.787018      -211.8955
  36   1.0000      -7.782200      -211.7644
  37   1.0000      -7.782077      -211.7611
  38   1.0000      -7.781360      -211.7416
  39   1.0000      -7.781293      -211.7398
  40   1.0000      -7.693064      -209.3389
  41   1.0000      -7.692938      -209.3355
  42   1.0000      -7.692736      -209.3300
  43   1.0000      -7.692521      -209.3241
  44   1.0000      -5.754546      -156.5891
  45   1.0000      -5.754461      -156.5868
  46   1.0000      -5.752004      -156.5200
  47   1.0000      -5.751998      -156.5198
  48   1.0000      -5.751246      -156.4994
  49   1.0000      -5.751169      -156.4973
  50   1.0000      -5.748627      -156.4281
  51   1.0000      -5.748622      -156.4280
  52   1.0000      -5.747151      -156.3879
  53   1.0000      -5.747021      -156.3844
  54   1.0000      -5.746312      -156.3651
  55   1.0000      -5.746245      -156.3633
  56   1.0000      -5.744397      -156.3130
  57   1.0000      -5.744307      -156.3105
  58   1.0000      -5.742715      -156.2672
  59   1.0000      -5.742592      -156.2639
  60   1.0000      -5.741889      -156.2448
  61   1.0000      -5.741833      -156.2432
  62   1.0000      -5.741832      -156.2432
  63   1.0000      -5.741818      -156.2428
  64   1.0000      -5.738026      -156.1396
  65   1.0000      -5.737903      -156.1363
  66   1.0000      -5.737166      -156.1162
  67   1.0000      -5.737104      -156.1145
  68   1.0000      -5.658377      -153.9723
  69   1.0000      -5.658264      -153.9692
  70   1.0000      -5.658067      -153.9638
  71   1.0000      -5.657831      -153.9574
  72   1.0000      -5.651971      -153.7980
  73   1.0000      -5.651841      -153.7944
  74   1.0000      -5.651652      -153.7893
  75   1.0000      -5.651432      -153.7833
  76   1.0000      -5.650351      -153.7539
  77   1.0000      -5.650248      -153.7511
  78   1.0000      -5.649988      -153.7440
  79   1.0000      -5.649814      -153.7393
  80   1.0000      -2.397798       -65.2474
  81   1.0000      -1.464197       -39.8428
  82   1.0000      -1.410023       -38.3687
  83   1.0000      -1.409870       -38.3645
  84   1.0000      -0.707387       -19.2490
  85   1.0000      -0.705421       -19.1955
  86   1.0000      -0.682694       -18.5770
  87   1.0000      -0.678322       -18.4581
  88   1.0000      -0.655952       -17.8494
  89   1.0000      -0.629125       -17.1194
  90   1.0000      -0.625770       -17.0281
  91   1.0000      -0.615349       -16.7445
  92   1.0000      -0.612841       -16.6762
  93   1.0000      -0.572998       -15.5921
  94   1.0000      -0.572077       -15.5670
  95   1.0000      -0.571753       -15.5582
  96   1.0000      -0.570007       -15.5107
  97   1.0000      -0.495754       -13.4901
  98   1.0000      -0.494285       -13.4502
  99   1.0000      -0.493886       -13.4393
 100   1.0000      -0.491094       -13.3633
 101   1.0000      -0.478057       -13.0086
 102   1.0000      -0.475351       -12.9349
 103   1.0000      -0.445893       -12.1334
 104   1.0000      -0.442340       -12.0367
 105   1.0000      -0.415526       -11.3070
 106   1.0000      -0.410385       -11.1672
 107   1.0000      -0.358230        -9.7479
 108   1.0000      -0.356575        -9.7029
 109   1.0000      -0.320463        -8.7202
 110   1.0000      -0.318628        -8.6703
 111   1.0000      -0.314581        -8.5602
 112   1.0000      -0.311100        -8.4655
 113   1.0000      -0.302633        -8.2351
 114   1.0000      -0.299246        -8.1429
 115   1.0000      -0.290291        -7.8992
 116   1.0000      -0.286616        -7.7992
 117   1.0000      -0.254479        -6.9247
 118   1.0000      -0.253353        -6.8941
 119   1.0000      -0.251354        -6.8397
 120   1.0000      -0.244642        -6.6570
 121   1.0000      -0.241015        -6.5583
 122   1.0000      -0.236908        -6.4466
 123   1.0000      -0.223979        -6.0948
 124   1.0000      -0.221784        -6.0351
 125   1.0000      -0.219787        -5.9807
 126   1.0000      -0.213733        -5.8160
 127   1.0000      -0.211633        -5.7588
 128   1.0000      -0.210899        -5.7389
 129   1.0000      -0.190115        -5.1733
 130   1.0000      -0.188174        -5.1205
 131   1.0000      -0.186319        -5.0700
 132   1.0000      -0.185392        -5.0448
 133   1.0000      -0.181906        -4.9499
 134   1.0000      -0.157480        -4.2853
 135   1.0000      -0.151912        -4.1337
 136   1.0000      -0.146795        -3.9945
 137   1.0000      -0.132700        -3.6109
 138   1.0000      -0.131484        -3.5779
 139   1.0000      -0.129422        -3.5217
 140   1.0000      -0.121947        -3.3183
 141   1.0000      -0.119233        -3.2445
 142   1.0000      -0.112861        -3.0711
 143   1.0000      -0.108337        -2.9480
 144   1.0000      -0.098088        -2.6691
 145   1.0000      -0.097495        -2.6530
 146   1.0000      -0.096568        -2.6277
 147   1.0000      -0.095361        -2.5949
 148   1.0000      -0.069431        -1.8893
 149   1.0000      -0.068412        -1.8616
 150   1.0000      -0.067464        -1.8358
 151   1.0000      -0.048517        -1.3202
 152   1.0000      -0.043386        -1.1806
 153   1.0000      -0.037542        -1.0216
 154   1.0000      -0.035267        -0.9597
 155   1.0000      -0.031074        -0.8456
 156   1.0000      -0.024594        -0.6692
 157   1.0000      -0.014360        -0.3908
 158   1.0000       0.021980         0.5981
 159   1.0000       0.041485         1.1289
 160   0.0000       0.135323         3.6823
 161   0.0000       0.137165         3.7325
 162   0.0000       0.157068         4.2740
 163   0.0000       0.162475         4.4212
 164   0.0000       0.163153         4.4396

MULLIKEN ATOMIC CHARGES AND SPIN POPULATIONS
--------------------------------------------
   0 V :    0.470130    1.212940
   1 S :   -0.291558   -0.022643
   2 S :   -0.289948   -0.025340
   3 S :   -0.289467   -0.023553
   4 S :   -0.285746   -0.025806
   5 O :   -0.470068   -0.148313
   6 C :   -0.077325    0.009699
   7 C :   -0.084559    0.008068
   8 C :   -0.084068    0.007743
   9 C :   -0.084765    0.007369
  10 S :    0.098311   -0.000574
  11 S :    0.099844   -0.000617
  12 S :    0.097348   -0.000389
  13 S :    0.096688   -0.000343
  14 C :   -0.219494    0.001521
  15 C :   -0.227863    0.000983
  16 C :   -0.183121   -0.000091
  17 C :   -0.170501   -0.000413
  18 S :    0.008553   -0.000118
  19 S :    0.008714   -0.000117
  20 S :    0.006923   -0.000076
  21 S :    0.007097   -0.000079
  22 C :   -0.261619   -0.000002
  23 C :   -0.260863   -0.000003
  24 C :   -0.178962   -0.000010
  25 H :    0.135339   -0.000002
  26 H :    0.093005   -0.000005
  27 H :    0.074173    0.000000
  28 H :    0.107218   -0.000001
  29 H :    0.092665   -0.000005
  30 H :    0.135131   -0.000002
  31 C :   -0.287452    0.000185
  32 C :   -0.288303    0.000181
  33 C :   -0.165636   -0.000221
  34 H :    0.139111   -0.000016
  35 H :    0.107446    0.000016
  36 H :    0.097099    0.000016
  37 H :    0.080038    0.000018
  38 H :    0.107283    0.000017
  39 H :    0.139201   -0.000017
Sum of atomic charges         :   -2.0000000

LOEWDIN ATOMIC CHARGES AND SPIN POPULATIONS
-------------------------------------------
   0 V :   -0.155297    1.166157
   1 S :    0.079736   -0.014626
   2 S :    0.079242   -0.016178
   3 S :    0.081145   -0.015410
   4 S :    0.083181   -0.016394
   5 O :   -0.322895   -0.133189
   6 C :   -0.550145    0.009055
   7 C :   -0.552352    0.007954
   8 C :   -0.552714    0.008121
   9 C :   -0.552657    0.007656
  10 S :    0.469545   -0.000894
  11 S :    0.470627   -0.000944
  12 S :    0.467218   -0.000823
  13 S :    0.466715   -0.000830
  14 C :   -0.464451    0.000148
  15 C :   -0.463444   -0.000087
  16 C :   -0.621513    0.000473
  17 C :   -0.619081    0.000078
  18 S :    0.359380   -0.000094
  19 S :    0.360727   -0.000091
  20 S :    0.362891   -0.000078
  21 S :    0.362439   -0.000081
  22 C :   -0.287057   -0.000008
  23 C :   -0.287405   -0.000009
  24 C :   -0.176770   -0.000002
  25 H :    0.069223   -0.000002
  26 H :    0.048878   -0.000003
  27 H :    0.056195   -0.000002
  28 H :    0.064603   -0.000000
  29 H :    0.048850   -0.000003
  30 H :    0.069022   -0.000002
  31 C :   -0.283510    0.000043
  32 C :   -0.283197    0.000037
  33 C :   -0.174222    0.000006
  34 H :    0.063457   -0.000001
  35 H :    0.051163    0.000007
  36 H :    0.061194    0.000004
  37 H :    0.056712    0.000002
  38 H :    0.051234    0.000007
  39 H :    0.063333   -0.000001

  Mayer bond orders larger than 0.100000
B(  0-V ,  1-S ) :   0.7732 B(  0-V ,  2-S ) :   0.7716 B(  0-V ,  3-S ) :   0.7665
B(  0-V ,  4-S ) :   0.7790 B(  0-V ,  5-O ) :   2.1461 B(  1-S ,  8-C ) :   1.1026
B(  2-S ,  6-C ) :   1.1038 B(  3-S ,  9-C ) :   1.1055 B(  4-S ,  7-C ) :   1.1044
B(  6-C ,  7-C ) :   1.6860 B(  6-C , 10-S ) :   0.9347 B(  7-C , 11-S ) :   0.9387
B(  8-C ,  9-C ) :   1.7020 B(  8-C , 13-S ) :   0.9336 B(  9-C , 12-S ) :   0.9354
B( 10-S , 14-C ) :   1.2486 B( 11-S , 14-C ) :   1.2486 B( 12-S , 15-C ) :   1.2456
B( 13-S , 15-C ) :   1.2460 B( 14-C , 16-C ) :   1.4668 B( 15-C , 17-C ) :   1.4948
B( 16-C , 18-S ) :   1.0813 B( 16-C , 19-S ) :   1.0824 B( 17-C , 20-S ) :   1.0691
B( 17-C , 21-S ) :   1.0702 B( 18-S , 32-C ) :   0.9985 B( 19-S , 31-C ) :   0.9988
B( 20-S , 23-C ) :   0.9949 B( 21-S , 22-C ) :   0.9946 B( 22-C , 24-C ) :   0.9326
B( 22-C , 25-H ) :   0.9333 B( 22-C , 26-H ) :   0.9757 B( 23-C , 24-C ) :   0.9329
B( 23-C , 29-H ) :   0.9757 B( 23-C , 30-H ) :   0.9330 B( 24-C , 27-H ) :   0.9852
B( 24-C , 28-H ) :   0.9497 B( 31-C , 33-C ) :   0.9194 B( 31-C , 38-H ) :   0.9695
B( 31-C , 39-H ) :   0.9541 B( 32-C , 33-C ) :   0.9194 B( 32-C , 34-H ) :   0.9540
B( 32-C , 35-H ) :   0.9695 B( 33-C , 36-H ) :   0.9653 B( 33-C , 37-H ) :   0.9707

FINAL SINGLE POINT ENERGY     -6337.676852407060

DIPOLE MOMENT
-------------
                                X             Y             Z
Electronic contribution:     -1.65876     -13.34438       3.14084
Nuclear contribution   :      1.90487      14.78047      -3.42402
                        -----------------------------------------
Total Dipole Moment    :      0.24611       1.43609      -0.28318
                        -----------------------------------------
Magnitude (a.u.)       :      1.48429
Magnitude (Debye)      :      3.77275

Rotational constants in cm-1:     0.010734     0.000804     0.000783
Rotational constants in MHz :   321.807355    24.113019    23.484730

                             ****ORCA TERMINATED NORMALLY****
TOTAL RUN TIME: 0 days 1 hours 1 minutes 48 seconds 881 msec
