                         Program Version 5.0.4 -  RELEASE  -
|  1> ! nofrozencore ReducedPop printbasis
|  2> ! B3LYP TZVP
|  3>
|  4> %basis
|  5> newgto V "CP(PPP)" end
|  6> end
|  7>
|  8> %pal
|  9> nprocs 8
| 10> end
| 11>
| 12> % sym SymThresh 1e-2 end
| 13> * xyz -2 2
| 14> V -0.9298402495620425 0.3277771534147912 -0.5295164792550795
| 15> S -0.5510371607438918 2.2457593362479775 1.0708382557400324
| 16> S 1.0284095169523855 1.0522903448732206 -1.9076114490423253
| 17> S -1.738095286340851 -0.7176535603173765 1.6310200802134565
| 18> S -0.12461431119934188 -1.9232860867127433 -1.2530147024314984
| 19> O -2.2165630008064277 0.6755357550783206 -1.3972506780856355
| 20> C 1.3052803746718489 -0.3179537579146044 -2.82661580986053
| 21> C 0.84099692485792 -1.5247347723176303 -2.556760570676109
| 22> C -1.2590164901490033 1.7348924859224248 2.4625223548597064
| 23> C -1.7367095108353718 0.5351144380589422 2.68924871920762
| 24> S 2.3026876120252697 -0.11879729187390951 -4.167850733271861
| 25> S 1.2741027152453221 -2.809391992688497 -3.555184214690465
| 26> S -2.3887124585807453 0.1820480209153107 4.15903707342829
| 27> S -1.3296167644794181 2.866347405939032 3.654399919460905
| 28> C 2.331151646036702 -1.8622603717357593 -4.69513103948899
| 29> C -2.0603247835872875 1.7998609162858445 4.954509714440035
| 30> C 3.019685355264795 -2.3770530943021964 -5.786984394843198
| 31> C -2.3382257703067197 2.1577294321873075 6.275866401285737
| 32> S 4.041914715271817 -1.305483271835707 -6.917405731968328
| 33> S 2.9853936779665524 -4.189982645126813 -6.21023142591244
| 34> S -1.952967074961412 3.8735415936120945 6.955672575601351
| 35> S -3.087899335629097 0.9410737899237887 7.506365040391112
| 36> C -1.6338455028820817 0.8870740855673467 8.646777592425739
| 37> C -0.6946031345443203 3.3244471475499355 8.193971078988827
| 38> C -1.2675589123488644 2.284349587163568 9.167339999999106
| 39> H -0.8020999308370322 0.40017579821757404 8.132911804814507
| 40> H -1.9322801163352405 0.259477641474108 9.495463080658915
| 41> H -0.5377858217024969 2.1551027179774502 9.983565626829725
| 42> H -2.1718400202438195 2.71554958428598 9.615540131208261
| 43> H -0.4111046468095625 4.220242995505458 8.75992749798922
| 44> H 0.18644765176360195 2.958775018698327 7.662125030026041
| 45> C 2.1660254789140243 -4.014820655495223 -7.856161538601226
| 46> C 3.043575102865976 -1.598854650303351 -8.443909789338747
| 47> C 2.9532987813176317 -3.0898970839818465 -8.792435423247944
| 48> H 2.059427501660357 -1.1437968914608332 -8.312623507711722
| 49> H 3.562751584414754 -1.0727581168558529 -9.25280565306297
| 50> H 3.9766911460990877 -3.478223327871083 -8.862815194566823
| 51> H 2.509423788794027 -3.1731992128260984 -9.797202793286992
| 52> H 2.13478273990434 -5.020998435979326 -8.288853877117011
| 53> H 1.1399827178111346 -3.6734469506768512 -7.702454734549039
| 54> *
| 55>
| 56> % eprnmr
| 57> gtensor true
| 58> Nuclei = all H {aiso,adip,aorb,fgrad,rho}
| 59> Nuclei = all V {aiso,adip,aorb,fgrad,rho}
| 60> end
| 61>
| 62>                          ****END OF INPUT****

CARTESIAN COORDINATES (ANGSTROEM)
---------------------------------
  V     -0.926335    0.326293   -0.529975
  S     -0.547532    2.244275    1.070380
  S      1.031915    1.050806   -1.908070
  S     -1.734590   -0.719137    1.630562
  S     -0.121109   -1.924770   -1.253473
  O     -2.213058    0.674052   -1.397709
  C      1.308786   -0.319438   -2.827074
  C      0.844502   -1.526219   -2.557219
  C     -1.255511    1.733409    2.462064
  C     -1.733204    0.533631    2.688790
  S      2.306193   -0.120281   -4.168309
  S      1.277608   -2.810876   -3.555643
  S     -2.385207    0.180564    4.158579
  S     -1.326112    2.864864    3.653941
  C      2.334657   -1.863744   -4.695590
  C     -2.056820    1.798377    4.954051
  C      3.023191   -2.378537   -5.787443
  C     -2.334721    2.156246    6.275408
  S      4.045420   -1.306967   -6.917864
  S      2.988899   -4.191467   -6.210690
  S     -1.949462    3.872058    6.955214
  S     -3.084394    0.939590    7.505907
  C     -1.630340    0.885590    8.646319
  C     -0.691098    3.322963    8.193513
  C     -1.264054    2.282866    9.166881
  H     -0.798595    0.398692    8.132453
  H     -1.928775    0.257994    9.495005
  H     -0.534281    2.153619    9.983107
  H     -2.168335    2.714066    9.615082
  H     -0.407599    4.218759    8.759469
  H      0.189953    2.957291    7.661667
  C      2.169531   -4.016305   -7.856620
  C      3.047080   -1.600339   -8.444368
  C      2.956804   -3.091381   -8.792894
  H      2.062933   -1.145281   -8.313082
  H      3.566257   -1.074242   -9.253264
  H      3.980196   -3.479707   -8.863274
  H      2.512929   -3.174683   -9.797661
  H      2.138288   -5.022482   -8.289312
  H      1.143488   -3.674931   -7.702913

 Total Charge           Charge          ....   -2
 Multiplicity           Mult            ....    2
 Number of Electrons    NEL             ....  321
 Basis Dimension        Dim             ....  681

ORBITAL ENERGIES
----------------
                 SPIN UP ORBITALS
  NO   OCC          E(Eh)            E(eV)
   0   1.0000    -196.682298     -5351.9974
   1   1.0000     -88.737514     -2414.6705
   2   1.0000     -88.737410     -2414.6677
   3   1.0000     -88.736651     -2414.6470
   4   1.0000     -88.736499     -2414.6429
   5   1.0000     -88.727986     -2414.4112
   6   1.0000     -88.727965     -2414.4107
   7   1.0000     -88.724454     -2414.3151
   8   1.0000     -88.724216     -2414.3086
   9   1.0000     -88.635314     -2411.8895
  10   1.0000     -88.635280     -2411.8886
  11   1.0000     -88.632143     -2411.8032
  12   1.0000     -88.631264     -2411.7793
  13   1.0000     -22.057087      -600.2038
  14   1.0000     -18.895416      -514.1704
  15   1.0000     -18.563401      -505.1358
  16   1.0000     -18.558553      -505.0039
  17   1.0000     -18.558269      -504.9962
  18   1.0000     -10.079708      -274.2828
  19   1.0000     -10.077641      -274.2266
  20   1.0000     -10.065376      -273.8928
  21   1.0000     -10.065309      -273.8910
  22   1.0000     -10.063967      -273.8545
  23   1.0000     -10.063889      -273.8523
  24   1.0000     -10.060694      -273.7654
  25   1.0000     -10.060028      -273.7473
  26   1.0000     -10.051016      -273.5020
  27   1.0000     -10.049404      -273.4582
  28   1.0000     -10.001555      -272.1561
  29   1.0000     -10.000530      -272.1283
  30   1.0000      -9.993250      -271.9301
  31   1.0000      -9.992212      -271.9019
  32   1.0000      -7.789506      -211.9632
  33   1.0000      -7.789441      -211.9615
  34   1.0000      -7.788257      -211.9293
  35   1.0000      -7.788130      -211.9258
  36   1.0000      -7.782522      -211.7732
  37   1.0000      -7.782490      -211.7723
  38   1.0000      -7.779835      -211.7001
  39   1.0000      -7.779640      -211.6948
  40   1.0000      -7.692166      -209.3145
  41   1.0000      -7.692089      -209.3124
  42   1.0000      -7.689961      -209.2545
  43   1.0000      -7.689232      -209.2347
  44   1.0000      -5.754563      -156.5896
  45   1.0000      -5.754501      -156.5879
  46   1.0000      -5.753355      -156.5568
  47   1.0000      -5.753217      -156.5530
  48   1.0000      -5.751409      -156.5038
  49   1.0000      -5.751332      -156.5017
  50   1.0000      -5.750210      -156.4712
  51   1.0000      -5.750092      -156.4680
  52   1.0000      -5.747715      -156.4033
  53   1.0000      -5.747695      -156.4027
  54   1.0000      -5.745106      -156.3323
  55   1.0000      -5.744902      -156.3267
  56   1.0000      -5.744198      -156.3076
  57   1.0000      -5.744134      -156.3058
  58   1.0000      -5.742937      -156.2733
  59   1.0000      -5.742805      -156.2697
  60   1.0000      -5.742607      -156.2643
  61   1.0000      -5.742576      -156.2634
  62   1.0000      -5.739712      -156.1855
  63   1.0000      -5.739517      -156.1802
  64   1.0000      -5.738241      -156.1455
  65   1.0000      -5.738206      -156.1445
  66   1.0000      -5.735493      -156.0707
  67   1.0000      -5.735298      -156.0654
  68   1.0000      -5.656829      -153.9301
  69   1.0000      -5.656790      -153.9291
  70   1.0000      -5.654477      -153.8661
  71   1.0000      -5.653715      -153.8454
  72   1.0000      -5.650845      -153.7673
  73   1.0000      -5.650783      -153.7656
  74   1.0000      -5.649598      -153.7334
  75   1.0000      -5.649502      -153.7308
  76   1.0000      -5.648621      -153.7068
  77   1.0000      -5.647890      -153.6869
  78   1.0000      -5.647401      -153.6736
  79   1.0000      -5.646644      -153.6530
  80   1.0000      -2.450141       -66.6717
  81   1.0000      -1.490985       -40.5718
  82   1.0000      -1.479752       -40.2661
  83   1.0000      -1.478578       -40.2341
  84   1.0000      -0.716204       -19.4889
  85   1.0000      -0.710378       -19.3304
  86   1.0000      -0.690519       -18.7900
  87   1.0000      -0.687580       -18.7100
  88   1.0000      -0.654499       -17.8098
  89   1.0000      -0.626160       -17.0387
  90   1.0000      -0.621806       -16.9202
  91   1.0000      -0.617975       -16.8159
  92   1.0000      -0.615809       -16.7570
  93   1.0000      -0.608973       -16.5710
  94   1.0000      -0.599382       -16.3100
  95   1.0000      -0.571309       -15.5461
  96   1.0000      -0.569073       -15.4853
  97   1.0000      -0.501448       -13.6451
  98   1.0000      -0.500133       -13.6093
  99   1.0000      -0.494219       -13.4484
 100   1.0000      -0.492289       -13.3959
 101   1.0000      -0.482201       -13.1213
 102   1.0000      -0.480532       -13.0759
 103   1.0000      -0.445234       -12.1154
 104   1.0000      -0.442654       -12.0452
 105   1.0000      -0.419095       -11.4042
 106   1.0000      -0.416728       -11.3397
 107   1.0000      -0.356209        -9.6929
 108   1.0000      -0.355166        -9.6646
 109   1.0000      -0.327413        -8.9094
 110   1.0000      -0.325672        -8.8620
 111   1.0000      -0.314851        -8.5675
 112   1.0000      -0.310474        -8.4484
 113   1.0000      -0.307757        -8.3745
 114   1.0000      -0.306489        -8.3400
 115   1.0000      -0.296264        -8.0617
 116   1.0000      -0.294664        -8.0182
 117   1.0000      -0.254348        -6.9212
 118   1.0000      -0.251656        -6.8479
 119   1.0000      -0.251092        -6.8326
 120   1.0000      -0.246623        -6.7109
 121   1.0000      -0.231945        -6.3115
 122   1.0000      -0.229151        -6.2355
 123   1.0000      -0.228265        -6.2114
 124   1.0000      -0.227005        -6.1771
 125   1.0000      -0.224534        -6.1099
 126   1.0000      -0.222632        -6.0581
 127   1.0000      -0.218043        -5.9333
 128   1.0000      -0.217198        -5.9103
 129   1.0000      -0.192405        -5.2356
 130   1.0000      -0.190446        -5.1823
 131   1.0000      -0.189401        -5.1539
 132   1.0000      -0.180087        -4.9004
 133   1.0000      -0.175618        -4.7788
 134   1.0000      -0.167114        -4.5474
 135   1.0000      -0.149104        -4.0573
 136   1.0000      -0.141402        -3.8477
 137   1.0000      -0.136919        -3.7258
 138   1.0000      -0.135966        -3.6998
 139   1.0000      -0.133941        -3.6447
 140   1.0000      -0.131335        -3.5738
 141   1.0000      -0.128888        -3.5072
 142   1.0000      -0.119216        -3.2440
 143   1.0000      -0.113101        -3.0776
 144   1.0000      -0.112861        -3.0711
 145   1.0000      -0.108137        -2.9426
 146   1.0000      -0.095047        -2.5864
 147   1.0000      -0.092278        -2.5110
 148   1.0000      -0.073865        -2.0100
 149   1.0000      -0.071358        -1.9418
 150   1.0000      -0.070453        -1.9171
 151   1.0000      -0.048337        -1.3153
 152   1.0000      -0.047159        -1.2833
 153   1.0000      -0.038169        -1.0386
 154   1.0000      -0.032085        -0.8731
 155   1.0000      -0.031458        -0.8560
 156   1.0000      -0.024017        -0.6535
 157   1.0000      -0.022965        -0.6249
 158   1.0000      -0.017162        -0.4670
 159   1.0000       0.030672         0.8346
 160   1.0000       0.049478         1.3464
 161   0.0000       0.134322         3.6551
 162   0.0000       0.136016         3.7012
 163   0.0000       0.156868         4.2686
 164   0.0000       0.158155         4.3036
 165   0.0000       0.160171         4.3585

                 SPIN DOWN ORBITALS
  NO   OCC          E(Eh)            E(eV)
   0   1.0000    -196.682438     -5352.0012
   1   1.0000     -88.737515     -2414.6705
   2   1.0000     -88.737412     -2414.6677
   3   1.0000     -88.736652     -2414.6471
   4   1.0000     -88.736501     -2414.6429
   5   1.0000     -88.727995     -2414.4115
   6   1.0000     -88.727975     -2414.4109
   7   1.0000     -88.724462     -2414.3154
   8   1.0000     -88.724224     -2414.3089
   9   1.0000     -88.635461     -2411.8935
  10   1.0000     -88.635426     -2411.8926
  11   1.0000     -88.632277     -2411.8069
  12   1.0000     -88.631401     -2411.7830
  13   1.0000     -22.041876      -599.7899
  14   1.0000     -18.899310      -514.2764
  15   1.0000     -18.557953      -504.9876
  16   1.0000     -18.542424      -504.5650
  17   1.0000     -18.541726      -504.5460
  18   1.0000     -10.079724      -274.2832
  19   1.0000     -10.077677      -274.2275
  20   1.0000     -10.065375      -273.8928
  21   1.0000     -10.065307      -273.8909
  22   1.0000     -10.063967      -273.8545
  23   1.0000     -10.063889      -273.8523
  24   1.0000     -10.060692      -273.7653
  25   1.0000     -10.060015      -273.7469
  26   1.0000     -10.051015      -273.5020
  27   1.0000     -10.049404      -273.4582
  28   1.0000     -10.001383      -272.1515
  29   1.0000     -10.000367      -272.1238
  30   1.0000      -9.993129      -271.9269
  31   1.0000      -9.992092      -271.8987
  32   1.0000      -7.789507      -211.9633
  33   1.0000      -7.789442      -211.9615
  34   1.0000      -7.788259      -211.9293
  35   1.0000      -7.788132      -211.9258
  36   1.0000      -7.782534      -211.7735
  37   1.0000      -7.782502      -211.7726
  38   1.0000      -7.779846      -211.7004
  39   1.0000      -7.779651      -211.6951
  40   1.0000      -7.692304      -209.3182
  41   1.0000      -7.692228      -209.3162
  42   1.0000      -7.690090      -209.2580
  43   1.0000      -7.689363      -209.2382
  44   1.0000      -5.754566      -156.5897
  45   1.0000      -5.754503      -156.5880
  46   1.0000      -5.753358      -156.5568
  47   1.0000      -5.753220      -156.5531
  48   1.0000      -5.751412      -156.5039
  49   1.0000      -5.751335      -156.5018
  50   1.0000      -5.750212      -156.4712
  51   1.0000      -5.750095      -156.4680
  52   1.0000      -5.747722      -156.4035
  53   1.0000      -5.747703      -156.4030
  54   1.0000      -5.745110      -156.3324
  55   1.0000      -5.744907      -156.3269
  56   1.0000      -5.744200      -156.3076
  57   1.0000      -5.744135      -156.3059
  58   1.0000      -5.742939      -156.2733
  59   1.0000      -5.742806      -156.2697
  60   1.0000      -5.742623      -156.2647
  61   1.0000      -5.742591      -156.2639
  62   1.0000      -5.739727      -156.1859
  63   1.0000      -5.739532      -156.1806
  64   1.0000      -5.738251      -156.1457
  65   1.0000      -5.738218      -156.1448
  66   1.0000      -5.735501      -156.0709
  67   1.0000      -5.735305      -156.0656
  68   1.0000      -5.656968      -153.9339
  69   1.0000      -5.656931      -153.9329
  70   1.0000      -5.654613      -153.8698
  71   1.0000      -5.653852      -153.8491
  72   1.0000      -5.651236      -153.7779
  73   1.0000      -5.651169      -153.7761
  74   1.0000      -5.649704      -153.7363
  75   1.0000      -5.649613      -153.7338
  76   1.0000      -5.648960      -153.7160
  77   1.0000      -5.648241      -153.6964
  78   1.0000      -5.647509      -153.6765
  79   1.0000      -5.646753      -153.6560
  80   1.0000      -2.404476       -65.4291
  81   1.0000      -1.470996       -40.0278
  82   1.0000      -1.416824       -38.5537
  83   1.0000      -1.415669       -38.5223
  84   1.0000      -0.716202       -19.4888
  85   1.0000      -0.710329       -19.3290
  86   1.0000      -0.690507       -18.7896
  87   1.0000      -0.687582       -18.7101
  88   1.0000      -0.662897       -18.0383
  89   1.0000      -0.626148       -17.0383
  90   1.0000      -0.621839       -16.9211
  91   1.0000      -0.617976       -16.8160
  92   1.0000      -0.615818       -16.7572
  93   1.0000      -0.609021       -16.5723
  94   1.0000      -0.599398       -16.3104
  95   1.0000      -0.571326       -15.5466
  96   1.0000      -0.569134       -15.4869
  97   1.0000      -0.501509       -13.6467
  98   1.0000      -0.500222       -13.6117
  99   1.0000      -0.494394       -13.4532
 100   1.0000      -0.492508       -13.4018
 101   1.0000      -0.482359       -13.1257
 102   1.0000      -0.480663       -13.0795
 103   1.0000      -0.445270       -12.1164
 104   1.0000      -0.442707       -12.0467
 105   1.0000      -0.419154       -11.4058
 106   1.0000      -0.416842       -11.3428
 107   1.0000      -0.356204        -9.6928
 108   1.0000      -0.355190        -9.6652
 109   1.0000      -0.327400        -8.9090
 110   1.0000      -0.325682        -8.8622
 111   1.0000      -0.314890        -8.5686
 112   1.0000      -0.310600        -8.4518
 113   1.0000      -0.307737        -8.3739
 114   1.0000      -0.306497        -8.3402
 115   1.0000      -0.296265        -8.0618
 116   1.0000      -0.294670        -8.0184
 117   1.0000      -0.254329        -6.9207
 118   1.0000      -0.251649        -6.8477
 119   1.0000      -0.250918        -6.8278
 120   1.0000      -0.246589        -6.7100
 121   1.0000      -0.231911        -6.3106
 122   1.0000      -0.229132        -6.2350
 123   1.0000      -0.228154        -6.2084
 124   1.0000      -0.226758        -6.1704
 125   1.0000      -0.224337        -6.1045
 126   1.0000      -0.222609        -6.0575
 127   1.0000      -0.218002        -5.9321
 128   1.0000      -0.217143        -5.9088
 129   1.0000      -0.192171        -5.2292
 130   1.0000      -0.190377        -5.1804
 131   1.0000      -0.188309        -5.1242
 132   1.0000      -0.179934        -4.8963
 133   1.0000      -0.175554        -4.7771
 134   1.0000      -0.166768        -4.5380
 135   1.0000      -0.148801        -4.0491
 136   1.0000      -0.141306        -3.8451
 137   1.0000      -0.136265        -3.7079
 138   1.0000      -0.135853        -3.6968
 139   1.0000      -0.133650        -3.6368
 140   1.0000      -0.131085        -3.5670
 141   1.0000      -0.128566        -3.4985
 142   1.0000      -0.120613        -3.2820
 143   1.0000      -0.114898        -3.1265
 144   1.0000      -0.113255        -3.0818
 145   1.0000      -0.109174        -2.9708
 146   1.0000      -0.095093        -2.5876
 147   1.0000      -0.092345        -2.5128
 148   1.0000      -0.071362        -1.9419
 149   1.0000      -0.070454        -1.9172
 150   1.0000      -0.068532        -1.8649
 151   1.0000      -0.046447        -1.2639
 152   1.0000      -0.045774        -1.2456
 153   1.0000      -0.038222        -1.0401
 154   1.0000      -0.031976        -0.8701
 155   1.0000      -0.030975        -0.8429
 156   1.0000      -0.024633        -0.6703
 157   1.0000      -0.017390        -0.4732
 158   1.0000       0.031100         0.8463
 159   1.0000       0.048487         1.3194
 160   0.0000       0.134319         3.6550
 161   0.0000       0.135957         3.6996
 162   0.0000       0.155524         4.2320
 163   0.0000       0.158746         4.3197
 164   0.0000       0.161505         4.3948

MULLIKEN ATOMIC CHARGES AND SPIN POPULATIONS
--------------------------------------------
   0 V :    0.459281    1.223565
   1 S :   -0.300559   -0.019444
   2 S :   -0.292279   -0.023723
   3 S :   -0.299959   -0.020615
   4 S :   -0.288778   -0.024527
   5 O :   -0.468659   -0.150382
   6 C :   -0.074386    0.006305
   7 C :   -0.083432    0.004977
   8 C :   -0.080124    0.003129
   9 C :   -0.081914    0.002880
  10 S :    0.114588   -0.000346
  11 S :    0.115968   -0.000455
  12 S :    0.120103    0.000018
  13 S :    0.118880    0.000103
  14 C :   -0.224770    0.000071
  15 C :   -0.228407   -0.001175
  16 C :   -0.179187    0.000391
  17 C :   -0.176743   -0.000096
  18 S :   -0.003914   -0.000212
  19 S :   -0.003614   -0.000209
  20 S :   -0.010864   -0.000223
  21 S :   -0.011204   -0.000230
  22 C :   -0.281922    0.000012
  23 C :   -0.281945    0.000010
  24 C :   -0.175241   -0.000013
  25 H :    0.146972   -0.000002
  26 H :    0.106839   -0.000010
  27 H :    0.077438    0.000004
  28 H :    0.095620   -0.000001
  29 H :    0.106776   -0.000011
  30 H :    0.146606   -0.000002
  31 C :   -0.285839    0.000201
  32 C :   -0.286219    0.000197
  33 C :   -0.172621   -0.000247
  34 H :    0.145737   -0.000018
  35 H :    0.108984    0.000022
  36 H :    0.095747    0.000029
  37 H :    0.078512    0.000018
  38 H :    0.109077    0.000023
  39 H :    0.145451   -0.000019
Sum of atomic charges         :   -2.0000000

LOEWDIN ATOMIC CHARGES AND SPIN POPULATIONS
-------------------------------------------
   0 V :   -0.107007    1.181001
   1 S :    0.111983   -0.013353
   2 S :    0.106727   -0.015809
   3 S :    0.112580   -0.014280
   4 S :    0.109457   -0.016308
   5 O :   -0.319657   -0.135031
   6 C :   -0.629879    0.006206
   7 C :   -0.630824    0.005365
   8 C :   -0.661309    0.004121
   9 C :   -0.660592    0.003803
  10 S :    0.502794   -0.000940
  11 S :    0.502993   -0.001015
  12 S :    0.515639   -0.000743
  13 S :    0.515450   -0.000718
  14 C :   -0.434767   -0.000722
  15 C :   -0.430824   -0.001591
  16 C :   -0.564176    0.000628
  17 C :   -0.550876    0.000045
  18 S :    0.332641   -0.000169
  19 S :    0.334242   -0.000164
  20 S :    0.324144   -0.000207
  21 S :    0.323766   -0.000212
  22 C :   -0.284764   -0.000005
  23 C :   -0.284871   -0.000007
  24 C :   -0.182545    0.000001
  25 H :    0.062658   -0.000003
  26 H :    0.053769   -0.000007
  27 H :    0.056383    0.000001
  28 H :    0.061467   -0.000001
  29 H :    0.053772   -0.000007
  30 H :    0.062501   -0.000003
  31 C :   -0.284975    0.000048
  32 C :   -0.284740    0.000043
  33 C :   -0.181859    0.000008
  34 H :    0.062415   -0.000002
  35 H :    0.053964    0.000008
  36 H :    0.061433    0.000006
  37 H :    0.056554    0.000004
  38 H :    0.054068    0.000008
  39 H :    0.062263   -0.000001

  Mayer bond orders larger than 0.100000
B(  0-V ,  1-S ) :   0.7656 B(  0-V ,  2-S ) :   0.7804 B(  0-V ,  3-S ) :   0.7575
B(  0-V ,  4-S ) :   0.7843 B(  0-V ,  5-O ) :   2.1520 B(  1-S ,  8-C ) :   1.1855
B(  2-S ,  6-C ) :   1.1577 B(  3-S ,  9-C ) :   1.1908 B(  4-S ,  7-C ) :   1.1631
B(  6-C ,  7-C ) :   1.5339 B(  6-C , 10-S ) :   1.0368 B(  7-C , 11-S ) :   1.0395
B(  8-C ,  9-C ) :   1.4813 B(  8-C , 13-S ) :   1.0770 B(  9-C , 12-S ) :   1.0787
B( 10-S , 14-C ) :   1.1826 B( 11-S , 14-C ) :   1.1828 B( 12-S , 15-C ) :   1.1639
B( 13-S , 15-C ) :   1.1651 B( 14-C , 16-C ) :   1.4845 B( 15-C , 17-C ) :   1.4799
B( 16-C , 18-S ) :   1.0198 B( 16-C , 19-S ) :   1.0202 B( 17-C , 20-S ) :   1.0023
B( 17-C , 21-S ) :   1.0027 B( 18-S , 32-C ) :   1.0091 B( 19-S , 31-C ) :   1.0091
B( 20-S , 23-C ) :   1.0132 B( 21-S , 22-C ) :   1.0127 B( 22-C , 24-C ) :   0.9163
B( 22-C , 25-H ) :   0.9653 B( 22-C , 26-H ) :   0.9639 B( 23-C , 24-C ) :   0.9173
B( 23-C , 29-H ) :   0.9640 B( 23-C , 30-H ) :   0.9651 B( 24-C , 27-H ) :   0.9539
B( 24-C , 28-H ) :   0.9746 B( 31-C , 33-C ) :   0.9156 B( 31-C , 38-H ) :   0.9646
B( 31-C , 39-H ) :   0.9651 B( 32-C , 33-C ) :   0.9152 B( 32-C , 34-H ) :   0.9651
B( 32-C , 35-H ) :   0.9646 B( 33-C , 36-H ) :   0.9749 B( 33-C , 37-H ) :   0.9548

FINAL SINGLE POINT ENERGY     -6337.621334222486

DIPOLE MOMENT
-------------
                                X             Y             Z
Electronic contribution:    -12.03454       5.41730      -3.57228
Nuclear contribution   :     13.38898      -6.07071       3.74092
                        -----------------------------------------
Total Dipole Moment    :      1.35444      -0.65341       0.16864
                        -----------------------------------------
Magnitude (a.u.)       :      1.51323
Magnitude (Debye)      :      3.84634

Rotational constants in cm-1:     0.010708     0.000806     0.000784
Rotational constants in MHz :   321.005021    24.149527    23.511778

                             ****ORCA TERMINATED NORMALLY****
TOTAL RUN TIME: 0 days 1 hours 2 minutes 20 seconds 448 msec
