                         Program Version 5.0.4 -  RELEASE  -
|  1> ! nofrozencore ReducedPop printbasis
|  2> ! B3LYP TZVP
|  3>
|  4> %basis
|  5> newgto V "CP(PPP)" end
|  6> end
|  7>
|  8> %pal
|  9> nprocs 8
| 10> end
| 11>
| 12> % sym SymThresh 1e-2 end
| 13> * xyz -2 2
| 14> V 0.9443481371374184 -0.517016128883936 -0.27922860031873026
| 15> S 1.0453899924219143 1.5174519597404785 -1.7194531724923163
| 16> S 1.4550755524702463 0.9943077137665657 1.584256807116104
| 17> S -0.7583549073657535 -1.3700676655800723 -1.8873249638470455
| 18> S -0.3720508539999646 -1.7526196283191664 1.3738247552702212
| 19> O 2.278733216744323 -1.3338736587323412 -0.5578904637328633
| 20> C 1.0742189019024246 -0.037436296898399134 2.9488784452796772
| 21> C 0.3279489479112714 -1.152447257726958 2.8611694825893315
| 22> C 0.08577852750522913 0.9789256045372045 -3.096846956694906
| 23> C -0.6290114019347499 -0.16082175698358567 -3.1613446184942875
| 24> S 1.6185922525015466 0.4410482731643909 4.587622115267851
| 25> S -0.04105611207758846 -2.009784405959132 4.386438952416137
| 26> S -1.5920960329774287 -0.41078937730803095 -4.661912445819571
| 27> S -0.030141998390463838 2.0685739389123965 -4.526024195658092
| 28> C 0.898765737349279 -0.9370808545657935 5.428912782996542
| 29> C -1.1444128091287213 1.0880031757402115 -5.488361974576506
| 30> C 0.9976994318949809 -1.117609686971887 6.773377060654236
| 31> C -1.6296819332453156 1.4613587745187349 -6.716719355911777
| 32> S 1.822633776280092 0.05015734338299151 7.8237852956867195
| 33> S 0.09344029432738947 -2.389393457137292 7.618059735815971
| 34> S -1.2269525225384132 3.046982637833082 -7.444064703366997
| 35> S -2.859874536966248 0.48257650329903373 -7.57315960865409
| 36> C -4.269977202166648 1.6835283290730592 -7.531713264560032
| 37> C -2.9122880279035384 3.8163257874088536 -7.429016277850919
| 38> C -3.935745764475109 3.0051574379977315 -8.223819659625576
| 39> H -4.549796097111274 1.8543179606492997 -6.48728213326031
| 40> H -5.099061749256689 1.1717527257563758 -8.030222154523235
| 41> H -4.858743203195178 3.5980054546191513 -8.329761392371664
| 42> H -3.5507398826067496 2.808105620849007 -9.23295280859114
| 43> H -2.776239383197806 4.814031081387541 -7.857752248515422
| 44> H -3.2336313558350964 3.929957959745433 -6.388804328270478
| 45> C 1.5528095832300854 -3.271623389485266 8.337150469475453
| 46> C 3.0819150866784137 -1.1190649022811738 8.513282392725229
| 47> C 2.508769004074643 -2.3919545287630477 9.164879203657256
| 48> H 3.7774230777970423 -1.3688952101015266 7.700937206609429
| 49> H 3.6344415766835994 -0.5480062669276725 9.272297376119988
| 50> H 1.997218625312279 -2.104665956277486 10.101789170921075
| 51> H 3.3704410416882093 -3.027584632924158 9.451837362856503
| 52> H 1.1374238102967056 -4.0553951387135845 8.985527152354411
| 53> H 2.0815517019082073 -3.759644671233545 7.507623715316469
| 54> *
| 55>
| 56> % eprnmr
| 57> gtensor true
| 58> Nuclei = all H {aiso,adip,aorb,fgrad,rho}
| 59> Nuclei = all V {aiso,adip,aorb,fgrad,rho}
| 60> end
| 61>
| 62>                          ****END OF INPUT****

CARTESIAN COORDINATES (ANGSTROEM)
---------------------------------
  V      0.942192   -0.515837   -0.276286
  S      1.043234    1.518631   -1.716511
  S      1.452919    0.995487    1.587199
  S     -0.760511   -1.368888   -1.884382
  S     -0.374207   -1.751440    1.376767
  O      2.276577   -1.332694   -0.554948
  C      1.072063   -0.036257    2.951821
  C      0.325793   -1.151268    2.864112
  C      0.083622    0.980105   -3.093904
  C     -0.631167   -0.159642   -3.158402
  S      1.616436    0.442228    4.590565
  S     -0.043212   -2.008605    4.389382
  S     -1.594252   -0.409610   -4.658970
  S     -0.032298    2.069753   -4.523082
  C      0.896610   -0.935902    5.431855
  C     -1.146569    1.089183   -5.485419
  C      0.995543   -1.116430    6.776320
  C     -1.631838    1.462538   -6.713777
  S      1.820478    0.051337    7.826728
  S      0.091284   -2.388214    7.621002
  S     -1.229109    3.048162   -7.441122
  S     -2.862031    0.483756   -7.570217
  C     -4.272133    1.684708   -7.528771
  C     -2.914444    3.817505   -7.426074
  C     -3.937902    3.006337   -8.220877
  H     -4.551952    1.855497   -6.484340
  H     -5.101218    1.172932   -8.027280
  H     -4.860899    3.599185   -8.326819
  H     -3.552896    2.809285   -9.230010
  H     -2.778395    4.815210   -7.854810
  H     -3.235787    3.931137   -6.385862
  C      1.550654   -3.270444    8.340093
  C      3.079759   -1.117886    8.516225
  C      2.506613   -2.390775    9.167822
  H      3.775267   -1.367716    7.703880
  H      3.632286   -0.546827    9.275240
  H      1.995063   -2.103487   10.104732
  H      3.368285   -3.026405    9.454780
  H      1.135268   -4.054216    8.988470
  H      2.079396   -3.758465    7.510566

 Total Charge           Charge          ....   -2
 Multiplicity           Mult            ....    2
 Number of Electrons    NEL             ....  321
 Basis Dimension        Dim             ....  681

ORBITAL ENERGIES
----------------
                 SPIN UP ORBITALS
  NO   OCC          E(Eh)            E(eV)
   0   1.0000    -196.674261     -5351.7787
   1   1.0000     -88.733750     -2414.5681
   2   1.0000     -88.733603     -2414.5641
   3   1.0000     -88.732451     -2414.5328
   4   1.0000     -88.732251     -2414.5273
   5   1.0000     -88.731324     -2414.5021
   6   1.0000     -88.730978     -2414.4927
   7   1.0000     -88.729130     -2414.4424
   8   1.0000     -88.729115     -2414.4420
   9   1.0000     -88.639109     -2411.9928
  10   1.0000     -88.639108     -2411.9928
  11   1.0000     -88.638925     -2411.9878
  12   1.0000     -88.638743     -2411.9828
  13   1.0000     -22.049670      -600.0020
  14   1.0000     -18.889403      -514.0068
  15   1.0000     -18.556100      -504.9372
  16   1.0000     -18.550954      -504.7971
  17   1.0000     -18.550854      -504.7944
  18   1.0000     -10.075844      -274.1776
  19   1.0000     -10.075425      -274.1662
  20   1.0000     -10.066210      -273.9155
  21   1.0000     -10.066130      -273.9133
  22   1.0000     -10.062561      -273.8162
  23   1.0000     -10.062471      -273.8138
  24   1.0000     -10.056530      -273.6521
  25   1.0000     -10.049746      -273.4675
  26   1.0000     -10.048573      -273.4356
  27   1.0000     -10.047174      -273.3975
  28   1.0000     -10.018125      -272.6070
  29   1.0000     -10.017338      -272.5856
  30   1.0000     -10.016995      -272.5763
  31   1.0000     -10.015993      -272.5490
  32   1.0000      -7.787408      -211.9062
  33   1.0000      -7.787281      -211.9027
  34   1.0000      -7.785705      -211.8598
  35   1.0000      -7.785533      -211.8551
  36   1.0000      -7.784631      -211.8306
  37   1.0000      -7.784393      -211.8241
  38   1.0000      -7.782301      -211.7672
  39   1.0000      -7.782287      -211.7668
  40   1.0000      -7.693767      -209.3580
  41   1.0000      -7.693499      -209.3507
  42   1.0000      -7.693152      -209.3413
  43   1.0000      -7.692864      -209.3335
  44   1.0000      -5.752308      -156.5283
  45   1.0000      -5.752186      -156.5249
  46   1.0000      -5.750753      -156.4860
  47   1.0000      -5.750578      -156.4812
  48   1.0000      -5.749561      -156.4535
  49   1.0000      -5.749325      -156.4471
  50   1.0000      -5.749025      -156.4389
  51   1.0000      -5.748893      -156.4353
  52   1.0000      -5.747270      -156.3912
  53   1.0000      -5.747250      -156.3906
  54   1.0000      -5.747248      -156.3906
  55   1.0000      -5.747104      -156.3866
  56   1.0000      -5.745200      -156.3349
  57   1.0000      -5.744945      -156.3279
  58   1.0000      -5.742786      -156.2691
  59   1.0000      -5.742784      -156.2691
  60   1.0000      -5.742204      -156.2533
  61   1.0000      -5.742073      -156.2497
  62   1.0000      -5.740490      -156.2067
  63   1.0000      -5.740415      -156.2046
  64   1.0000      -5.740309      -156.2018
  65   1.0000      -5.740168      -156.1979
  66   1.0000      -5.738144      -156.1428
  67   1.0000      -5.738143      -156.1428
  68   1.0000      -5.658979      -153.9886
  69   1.0000      -5.658749      -153.9824
  70   1.0000      -5.658516      -153.9761
  71   1.0000      -5.658227      -153.9682
  72   1.0000      -5.652385      -153.8092
  73   1.0000      -5.652127      -153.8022
  74   1.0000      -5.651878      -153.7954
  75   1.0000      -5.651579      -153.7873
  76   1.0000      -5.651139      -153.7753
  77   1.0000      -5.650837      -153.7671
  78   1.0000      -5.650408      -153.7554
  79   1.0000      -5.650121      -153.7476
  80   1.0000      -2.443323       -66.4862
  81   1.0000      -1.484547       -40.3966
  82   1.0000      -1.472985       -40.0820
  83   1.0000      -1.472198       -40.0605
  84   1.0000      -0.711442       -19.3593
  85   1.0000      -0.707321       -19.2472
  86   1.0000      -0.684796       -18.6343
  87   1.0000      -0.684385       -18.6231
  88   1.0000      -0.649046       -17.6614
  89   1.0000      -0.632700       -17.2166
  90   1.0000      -0.628626       -17.1058
  91   1.0000      -0.618570       -16.8322
  92   1.0000      -0.614720       -16.7274
  93   1.0000      -0.577365       -15.7109
  94   1.0000      -0.575006       -15.6467
  95   1.0000      -0.571901       -15.5622
  96   1.0000      -0.570473       -15.5234
  97   1.0000      -0.498175       -13.5560
  98   1.0000      -0.497729       -13.5439
  99   1.0000      -0.493465       -13.4279
 100   1.0000      -0.492878       -13.4119
 101   1.0000      -0.480000       -13.0615
 102   1.0000      -0.476092       -12.9551
 103   1.0000      -0.446558       -12.1515
 104   1.0000      -0.443374       -12.0648
 105   1.0000      -0.415788       -11.3142
 106   1.0000      -0.410547       -11.1716
 107   1.0000      -0.354637        -9.6502
 108   1.0000      -0.353597        -9.6219
 109   1.0000      -0.327903        -8.9227
 110   1.0000      -0.321289        -8.7427
 111   1.0000      -0.319498        -8.6940
 112   1.0000      -0.313656        -8.5350
 113   1.0000      -0.306601        -8.3430
 114   1.0000      -0.300771        -8.1844
 115   1.0000      -0.292573        -7.9613
 116   1.0000      -0.289573        -7.8797
 117   1.0000      -0.260239        -7.0815
 118   1.0000      -0.259247        -7.0545
 119   1.0000      -0.254003        -6.9118
 120   1.0000      -0.253032        -6.8854
 121   1.0000      -0.234300        -6.3756
 122   1.0000      -0.233069        -6.3421
 123   1.0000      -0.230955        -6.2846
 124   1.0000      -0.228060        -6.2058
 125   1.0000      -0.220805        -6.0084
 126   1.0000      -0.217158        -5.9092
 127   1.0000      -0.212899        -5.7933
 128   1.0000      -0.211588        -5.7576
 129   1.0000      -0.192527        -5.2389
 130   1.0000      -0.187075        -5.0906
 131   1.0000      -0.186650        -5.0790
 132   1.0000      -0.185786        -5.0555
 133   1.0000      -0.178301        -4.8518
 134   1.0000      -0.159188        -4.3317
 135   1.0000      -0.152790        -4.1576
 136   1.0000      -0.145851        -3.9688
 137   1.0000      -0.135703        -3.6927
 138   1.0000      -0.133731        -3.6390
 139   1.0000      -0.133337        -3.6283
 140   1.0000      -0.124520        -3.3884
 141   1.0000      -0.120562        -3.2807
 142   1.0000      -0.112745        -3.0679
 143   1.0000      -0.109326        -2.9749
 144   1.0000      -0.100529        -2.7355
 145   1.0000      -0.098569        -2.6822
 146   1.0000      -0.096869        -2.6359
 147   1.0000      -0.093609        -2.5472
 148   1.0000      -0.074462        -2.0262
 149   1.0000      -0.067176        -1.8280
 150   1.0000      -0.066127        -1.7994
 151   1.0000      -0.052175        -1.4197
 152   1.0000      -0.045543        -1.2393
 153   1.0000      -0.037425        -1.0184
 154   1.0000      -0.036262        -0.9867
 155   1.0000      -0.030827        -0.8388
 156   1.0000      -0.024045        -0.6543
 157   1.0000      -0.018479        -0.5028
 158   1.0000      -0.014505        -0.3947
 159   1.0000       0.020894         0.5686
 160   1.0000       0.041616         1.1324
 161   0.0000       0.134841         3.6692
 162   0.0000       0.138211         3.7609
 163   0.0000       0.158890         4.3236
 164   0.0000       0.164004         4.4628
 165   0.0000       0.167017         4.5448

                 SPIN DOWN ORBITALS
  NO   OCC          E(Eh)            E(eV)
   0   1.0000    -196.674407     -5351.7827
   1   1.0000     -88.733751     -2414.5681
   2   1.0000     -88.733604     -2414.5641
   3   1.0000     -88.732452     -2414.5328
   4   1.0000     -88.732251     -2414.5273
   5   1.0000     -88.731333     -2414.5023
   6   1.0000     -88.730987     -2414.4929
   7   1.0000     -88.729137     -2414.4426
   8   1.0000     -88.729122     -2414.4422
   9   1.0000     -88.639250     -2411.9966
  10   1.0000     -88.639246     -2411.9965
  11   1.0000     -88.639067     -2411.9916
  12   1.0000     -88.638882     -2411.9866
  13   1.0000     -22.034747      -599.5960
  14   1.0000     -18.893176      -514.1095
  15   1.0000     -18.550837      -504.7939
  16   1.0000     -18.534925      -504.3609
  17   1.0000     -18.534750      -504.3562
  18   1.0000     -10.075843      -274.1776
  19   1.0000     -10.075423      -274.1662
  20   1.0000     -10.066209      -273.9155
  21   1.0000     -10.066129      -273.9133
  22   1.0000     -10.062562      -273.8162
  23   1.0000     -10.062471      -273.8138
  24   1.0000     -10.056530      -273.6521
  25   1.0000     -10.049746      -273.4675
  26   1.0000     -10.048568      -273.4354
  27   1.0000     -10.047162      -273.3972
  28   1.0000     -10.017916      -272.6014
  29   1.0000     -10.017131      -272.5800
  30   1.0000     -10.016747      -272.5696
  31   1.0000     -10.015764      -272.5428
  32   1.0000      -7.787409      -211.9062
  33   1.0000      -7.787282      -211.9027
  34   1.0000      -7.785705      -211.8598
  35   1.0000      -7.785533      -211.8551
  36   1.0000      -7.784641      -211.8309
  37   1.0000      -7.784403      -211.8244
  38   1.0000      -7.782309      -211.7674
  39   1.0000      -7.782296      -211.7670
  40   1.0000      -7.693898      -209.3616
  41   1.0000      -7.693631      -209.3544
  42   1.0000      -7.693281      -209.3448
  43   1.0000      -7.692994      -209.3370
  44   1.0000      -5.752309      -156.5283
  45   1.0000      -5.752188      -156.5250
  46   1.0000      -5.750754      -156.4860
  47   1.0000      -5.750579      -156.4812
  48   1.0000      -5.749572      -156.4538
  49   1.0000      -5.749336      -156.4474
  50   1.0000      -5.749027      -156.4390
  51   1.0000      -5.748894      -156.4354
  52   1.0000      -5.747271      -156.3912
  53   1.0000      -5.747259      -156.3909
  54   1.0000      -5.747257      -156.3908
  55   1.0000      -5.747104      -156.3867
  56   1.0000      -5.745216      -156.3353
  57   1.0000      -5.744960      -156.3283
  58   1.0000      -5.742799      -156.2695
  59   1.0000      -5.742797      -156.2694
  60   1.0000      -5.742205      -156.2533
  61   1.0000      -5.742074      -156.2498
  62   1.0000      -5.740491      -156.2067
  63   1.0000      -5.740422      -156.2048
  64   1.0000      -5.740310      -156.2018
  65   1.0000      -5.740177      -156.1982
  66   1.0000      -5.738149      -156.1430
  67   1.0000      -5.738148      -156.1430
  68   1.0000      -5.659122      -153.9925
  69   1.0000      -5.658896      -153.9864
  70   1.0000      -5.658656      -153.9799
  71   1.0000      -5.658367      -153.9720
  72   1.0000      -5.652766      -153.8196
  73   1.0000      -5.652502      -153.8124
  74   1.0000      -5.652237      -153.8052
  75   1.0000      -5.651944      -153.7972
  76   1.0000      -5.651233      -153.7779
  77   1.0000      -5.650938      -153.7698
  78   1.0000      -5.650513      -153.7583
  79   1.0000      -5.650227      -153.7505
  80   1.0000      -2.398456       -65.2653
  81   1.0000      -1.465261       -39.8718
  82   1.0000      -1.410661       -38.3860
  83   1.0000      -1.410475       -38.3810
  84   1.0000      -0.711412       -19.3585
  85   1.0000      -0.707307       -19.2468
  86   1.0000      -0.684740       -18.6327
  87   1.0000      -0.684344       -18.6220
  88   1.0000      -0.657141       -17.8817
  89   1.0000      -0.632626       -17.2146
  90   1.0000      -0.628570       -17.1042
  91   1.0000      -0.618570       -16.8322
  92   1.0000      -0.614722       -16.7274
  93   1.0000      -0.577336       -15.7101
  94   1.0000      -0.574921       -15.6444
  95   1.0000      -0.571879       -15.5616
  96   1.0000      -0.570414       -15.5217
  97   1.0000      -0.498191       -13.5565
  98   1.0000      -0.497767       -13.5449
  99   1.0000      -0.493496       -13.4287
 100   1.0000      -0.492935       -13.4134
 101   1.0000      -0.480194       -13.0668
 102   1.0000      -0.476336       -12.9618
 103   1.0000      -0.446587       -12.1523
 104   1.0000      -0.443410       -12.0658
 105   1.0000      -0.415792       -11.3143
 106   1.0000      -0.410649       -11.1743
 107   1.0000      -0.354632        -9.6500
 108   1.0000      -0.353588        -9.6216
 109   1.0000      -0.327894        -8.9224
 110   1.0000      -0.321270        -8.7422
 111   1.0000      -0.319430        -8.6921
 112   1.0000      -0.313679        -8.5356
 113   1.0000      -0.306565        -8.3421
 114   1.0000      -0.300736        -8.1834
 115   1.0000      -0.292567        -7.9612
 116   1.0000      -0.289569        -7.8796
 117   1.0000      -0.260173        -7.0797
 118   1.0000      -0.259112        -7.0508
 119   1.0000      -0.253945        -6.9102
 120   1.0000      -0.252985        -6.8841
 121   1.0000      -0.234266        -6.3747
 122   1.0000      -0.233031        -6.3411
 123   1.0000      -0.230916        -6.2836
 124   1.0000      -0.228014        -6.2046
 125   1.0000      -0.220511        -6.0004
 126   1.0000      -0.217007        -5.9051
 127   1.0000      -0.212669        -5.7870
 128   1.0000      -0.211471        -5.7544
 129   1.0000      -0.190787        -5.1916
 130   1.0000      -0.186814        -5.0835
 131   1.0000      -0.186427        -5.0729
 132   1.0000      -0.185647        -5.0517
 133   1.0000      -0.178155        -4.8478
 134   1.0000      -0.158565        -4.3148
 135   1.0000      -0.152634        -4.1534
 136   1.0000      -0.145757        -3.9662
 137   1.0000      -0.135109        -3.6765
 138   1.0000      -0.133478        -3.6321
 139   1.0000      -0.132985        -3.6187
 140   1.0000      -0.123883        -3.3710
 141   1.0000      -0.120271        -3.2728
 142   1.0000      -0.114469        -3.1149
 143   1.0000      -0.110794        -3.0148
 144   1.0000      -0.100667        -2.7393
 145   1.0000      -0.098796        -2.6884
 146   1.0000      -0.097098        -2.6422
 147   1.0000      -0.093815        -2.5528
 148   1.0000      -0.070463        -1.9174
 149   1.0000      -0.067167        -1.8277
 150   1.0000      -0.066132        -1.7996
 151   1.0000      -0.049601        -1.3497
 152   1.0000      -0.044562        -1.2126
 153   1.0000      -0.037519        -1.0209
 154   1.0000      -0.035635        -0.9697
 155   1.0000      -0.030935        -0.8418
 156   1.0000      -0.025124        -0.6837
 157   1.0000      -0.014705        -0.4001
 158   1.0000       0.021135         0.5751
 159   1.0000       0.040637         1.1058
 160   0.0000       0.134835         3.6690
 161   0.0000       0.138193         3.7604
 162   0.0000       0.155868         4.2414
 163   0.0000       0.159935         4.3520
 164   0.0000       0.164759         4.4833

MULLIKEN ATOMIC CHARGES AND SPIN POPULATIONS
--------------------------------------------
   0 V :    0.470777    1.210616
   1 S :   -0.297320   -0.023163
   2 S :   -0.284035   -0.024663
   3 S :   -0.294870   -0.023877
   4 S :   -0.281205   -0.025182
   5 O :   -0.468520   -0.146445
   6 C :   -0.076687    0.009824
   7 C :   -0.087074    0.007976
   8 C :   -0.083862    0.007688
   9 C :   -0.084069    0.007512
  10 S :    0.098332   -0.000601
  11 S :    0.100404   -0.000655
  12 S :    0.100998   -0.000319
  13 S :    0.100312   -0.000293
  14 C :   -0.198733    0.001264
  15 C :   -0.226706    0.000972
  16 C :   -0.209818   -0.000035
  17 C :   -0.171817   -0.000443
  18 S :    0.017160   -0.000127
  19 S :    0.017774   -0.000124
  20 S :    0.002103   -0.000057
  21 S :    0.002133   -0.000061
  22 C :   -0.307901   -0.000009
  23 C :   -0.307517   -0.000010
  24 C :   -0.163479   -0.000002
  25 H :    0.144889   -0.000001
  26 H :    0.116643   -0.000004
  27 H :    0.082614   -0.000001
  28 H :    0.099682   -0.000002
  29 H :    0.116391   -0.000005
  30 H :    0.144662   -0.000000
  31 C :   -0.288585    0.000219
  32 C :   -0.289966    0.000215
  33 C :   -0.152351   -0.000271
  34 H :    0.139845   -0.000020
  35 H :    0.107388    0.000031
  36 H :    0.083092    0.000025
  37 H :    0.082181    0.000017
  38 H :    0.107498    0.000032
  39 H :    0.139639   -0.000020
Sum of atomic charges         :   -2.0000000

LOEWDIN ATOMIC CHARGES AND SPIN POPULATIONS
-------------------------------------------
   0 V :   -0.158021    1.163970
   1 S :    0.069672   -0.015151
   2 S :    0.090369   -0.015596
   3 S :    0.072115   -0.015712
   4 S :    0.093112   -0.015901
   5 O :   -0.319853   -0.131356
   6 C :   -0.553738    0.009357
   7 C :   -0.556552    0.008134
   8 C :   -0.549297    0.007856
   9 C :   -0.549371    0.007588
  10 S :    0.473122   -0.000972
  11 S :    0.474922   -0.001032
  12 S :    0.469650   -0.000745
  13 S :    0.469303   -0.000766
  14 C :   -0.462418    0.000033
  15 C :   -0.466143   -0.000097
  16 C :   -0.623774    0.000531
  17 C :   -0.619773    0.000085
  18 S :    0.360303   -0.000098
  19 S :    0.361688   -0.000093
  20 S :    0.356363   -0.000065
  21 S :    0.356210   -0.000067
  22 C :   -0.284357   -0.000009
  23 C :   -0.284452   -0.000010
  24 C :   -0.180394   -0.000002
  25 H :    0.063521   -0.000002
  26 H :    0.053825   -0.000002
  27 H :    0.056880   -0.000002
  28 H :    0.061346   -0.000001
  29 H :    0.053800   -0.000003
  30 H :    0.063383   -0.000002
  31 C :   -0.285392    0.000050
  32 C :   -0.285142    0.000043
  33 C :   -0.172877    0.000006
  34 H :    0.061529   -0.000000
  35 H :    0.053828    0.000011
  36 H :    0.060284    0.000005
  37 H :    0.060983    0.000002
  38 H :    0.053885    0.000011
  39 H :    0.061462    0.000000

  Mayer bond orders larger than 0.100000
B(  0-V ,  1-S ) :   0.7549 B(  0-V ,  2-S ) :   0.7888 B(  0-V ,  3-S ) :   0.7511
B(  0-V ,  4-S ) :   0.7937 B(  0-V ,  5-O ) :   2.1478 B(  1-S ,  8-C ) :   1.1059
B(  2-S ,  6-C ) :   1.1064 B(  3-S ,  9-C ) :   1.1067 B(  4-S ,  7-C ) :   1.1095
B(  6-C ,  7-C ) :   1.6752 B(  6-C , 10-S ) :   0.9379 B(  7-C , 11-S ) :   0.9432
B(  8-C ,  9-C ) :   1.7032 B(  8-C , 13-S ) :   0.9319 B(  9-C , 12-S ) :   0.9332
B( 10-S , 14-C ) :   1.2461 B( 11-S , 14-C ) :   1.2454 B( 12-S , 15-C ) :   1.2484
B( 13-S , 15-C ) :   1.2487 B( 14-C , 16-C ) :   1.4630 B( 15-C , 17-C ) :   1.4480
B( 16-C , 18-S ) :   1.0964 B( 16-C , 19-S ) :   1.0985 B( 17-C , 20-S ) :   1.0793
B( 17-C , 21-S ) :   1.0793 B( 18-S , 32-C ) :   0.9942 B( 19-S , 31-C ) :   0.9943
B( 20-S , 23-C ) :   0.9878 B( 21-S , 22-C ) :   0.9876 B( 22-C , 24-C ) :   0.9049
B( 22-C , 25-H ) :   0.9679 B( 22-C , 26-H ) :   0.9653 B( 23-C , 24-C ) :   0.9055
B( 23-C , 29-H ) :   0.9653 B( 23-C , 30-H ) :   0.9678 B( 24-C , 27-H ) :   0.9587
B( 24-C , 28-H ) :   0.9717 B( 31-C , 33-C ) :   0.9200 B( 31-C , 38-H ) :   0.9635
B( 31-C , 39-H ) :   0.9649 B( 32-C , 33-C ) :   0.9196 B( 32-C , 34-H ) :   0.9646
B( 32-C , 35-H ) :   0.9635 B( 33-C , 36-H ) :   0.9736 B( 33-C , 37-H ) :   0.9660

FINAL SINGLE POINT ENERGY     -6337.702190848528

DIPOLE MOMENT
-------------
                                X             Y             Z
Electronic contribution:     10.65675      -4.91647      -6.54382
Nuclear contribution   :    -11.89246       5.46602       7.59343
                        -----------------------------------------
Total Dipole Moment    :     -1.23571       0.54955       1.04961
                        -----------------------------------------
Magnitude (a.u.)       :      1.71192
Magnitude (Debye)      :      4.35135

Rotational constants in cm-1:     0.010767     0.000805     0.000784
Rotational constants in MHz :   322.795472    24.122580    23.493325

                             ****ORCA TERMINATED NORMALLY****
TOTAL RUN TIME: 0 days 1 hours 1 minutes 39 seconds 223 msec
