                         Program Version 5.0.4 -  RELEASE  -
|  1> ! nofrozencore ReducedPop printbasis
|  2> ! B3LYP TZVP
|  3>
|  4> %basis
|  5> newgto V "CP(PPP)" end
|  6> end
|  7>
|  8> %pal
|  9> nprocs 8
| 10> end
| 11>
| 12> % sym SymThresh 1e-2 end
| 13> * xyz -2 2
| 14> V -0.5378581941829216 0.37208852184740576 0.9006930460954494
| 15> S -2.1578453499426633 0.9280199855563209 -0.8841321485891519
| 16> S -1.2215778810880895 -1.9782899342760405 0.5325911043468835
| 17> S 0.7543153781753578 2.3235371683371238 0.09252996857811457
| 18> S 1.6923560210688582 -0.5538989416453093 1.4042390194575813
| 19> O -1.1995515751149979 0.7904229225611483 2.2831794163950456
| 20> C 0.08034490646121642 -2.791835849394992 1.3910855557990247
| 21> C 1.249636610769664 -2.221295576046857 1.7374150639906896
| 22> C -1.5439640337339946 2.4828798541970003 -1.4293452746752746
| 23> C -0.3808416765221523 3.037407004386894 -1.0415442003675273
| 24> S -0.10255360760839749 -4.53581279872127 1.784850122293697
| 25> S 2.4591931556705986 -3.2867205179643886 2.5252619168493755
| 26> S 0.04481479028179818 4.6129239513160085 -1.7913043972519298
| 27> S -2.5043035254506214 3.4041653344145306 -2.6363227417486272
| 28> C 1.5035852202241209 -4.7681258197907495 2.496954761455917
| 29> C -1.3629493909535808 4.736829358070474 -2.8524510240202074
| 30> C 1.9404913578698326 -5.970587457441568 2.98096189356723
| 31> C -1.553409764445321 5.760435695229597 -3.7389522845664462
| 32> S 0.9250307543436272 -7.425607614819942 2.992021789805775
| 33> S 3.5795662609725545 -6.14641864261898 3.6782574654375177
| 34> S -2.9891782400542652 5.840683872003676 -4.79126802456847
| 35> S -0.36050302140432205 7.070514218813776 -3.9340193252596727
| 36> C 0.10352965388951467 6.750013184487991 -5.69760209694059
| 37> C -2.1334206866500613 5.709737108747789 -6.427969173874127
| 38> C -1.0829700687397834 6.797816190918739 -6.663095123501
| 39> H 0.6047992675013698 5.7806438603551795 -5.744279918930464
| 40> H 0.8320345580151094 7.523880603816735 -5.952274873281971
| 41> H -0.6966574103401353 6.684481595214306 -7.685731175052924
| 42> H -1.5594965740657145 7.781306961350089 -6.6024626990879645
| 43> H -2.9266032500915347 5.780226793332293 -7.1764627789220174
| 44> H -1.685822005425248 4.715816312282836 -6.49728853415162
| 45> C 3.030200055519422 -6.671337101837868 5.42182907065518
| 46> C 0.751816955896644 -7.676892607996811 4.77087028427563
| 47> C 2.3062549115662336 -7.789720344080514 5.518056875984136
| 48> H 0.17435551971491678 -6.809307548573843 5.112874280420383
| 49> H 0.1398983081720539 -8.571799498493528 4.907323100158649
| 50> H 2.888637096545212 -8.61529541811829 5.092014303719781
| 51> H 2.3201812076014487 -7.934786435141756 6.626874831424952
| 52> H 3.970163731580305 -6.863530302815536 5.946655855529074
| 53> H 2.5064505245297934 -5.865660641307194 5.950820447961945
| 54> *
| 55>
| 56> % eprnmr
| 57> gtensor true
| 58> Nuclei = all H {aiso,adip,aorb,fgrad,rho}
| 59> Nuclei = all V {aiso,adip,aorb,fgrad,rho}
| 60> end
| 61>
| 62>                          ****END OF INPUT****

CARTESIAN COORDINATES (ANGSTROEM)
---------------------------------
  V     -0.535939    0.369138    0.899173
  S     -2.155926    0.925070   -0.885652
  S     -1.219659   -1.981240    0.531071
  S      0.756235    2.320587    0.091010
  S      1.694275   -0.556849    1.402719
  O     -1.197632    0.787473    2.281660
  C      0.082264   -2.794786    1.389566
  C      1.251556   -2.224246    1.735895
  C     -1.542045    2.479929   -1.430865
  C     -0.378922    3.034457   -1.043064
  S     -0.100634   -4.538763    1.783330
  S      2.461112   -3.289671    2.523742
  S      0.046734    4.609974   -1.792824
  S     -2.502384    3.401215   -2.637843
  C      1.505504   -4.771076    2.495435
  C     -1.361030    4.733879   -2.853971
  C      1.942411   -5.973538    2.979442
  C     -1.551491    5.757485   -3.740472
  S      0.926950   -7.428558    2.990502
  S      3.581485   -6.149369    3.676738
  S     -2.987259    5.837733   -4.792788
  S     -0.358584    7.067564   -3.935539
  C      0.105449    6.747063   -5.699122
  C     -2.131501    5.706787   -6.429489
  C     -1.081051    6.794866   -6.664615
  H      0.606718    5.777693   -5.745800
  H      0.833954    7.520930   -5.953795
  H     -0.694738    6.681531   -7.687251
  H     -1.557577    7.778357   -6.603983
  H     -2.924684    5.777276   -7.177983
  H     -1.683903    4.712866   -6.498808
  C      3.032119   -6.674287    5.420309
  C      0.753736   -7.679843    4.769350
  C      2.308174   -7.792671    5.516537
  H      0.176275   -6.812258    5.111354
  H      0.141818   -8.574750    4.905803
  H      2.890556   -8.618246    5.090494
  H      2.322100   -7.937737    6.625355
  H      3.972083   -6.866481    5.945136
  H      2.508370   -5.868611    5.949301

 Total Charge           Charge          ....   -2
 Multiplicity           Mult            ....    2
 Number of Electrons    NEL             ....  321
 Basis Dimension        Dim             ....  681

ORBITAL ENERGIES
----------------
                 SPIN UP ORBITALS
  NO   OCC          E(Eh)            E(eV)
   0   1.0000    -196.674493     -5351.7850
   1   1.0000     -88.733020     -2414.5482
   2   1.0000     -88.732935     -2414.5459
   3   1.0000     -88.732903     -2414.5450
   4   1.0000     -88.732378     -2414.5308
   5   1.0000     -88.730078     -2414.4682
   6   1.0000     -88.729811     -2414.4609
   7   1.0000     -88.729749     -2414.4592
   8   1.0000     -88.729705     -2414.4580
   9   1.0000     -88.639435     -2412.0017
  10   1.0000     -88.639388     -2412.0004
  11   1.0000     -88.639159     -2411.9941
  12   1.0000     -88.638972     -2411.9891
  13   1.0000     -22.049894      -600.0081
  14   1.0000     -18.889796      -514.0175
  15   1.0000     -18.556344      -504.9438
  16   1.0000     -18.551168      -504.8029
  17   1.0000     -18.551068      -504.8002
  18   1.0000     -10.075608      -274.1712
  19   1.0000     -10.075521      -274.1689
  20   1.0000     -10.072604      -274.0895
  21   1.0000     -10.063082      -273.8304
  22   1.0000     -10.063032      -273.8290
  23   1.0000     -10.053110      -273.5590
  24   1.0000     -10.051152      -273.5058
  25   1.0000     -10.050961      -273.5005
  26   1.0000     -10.048182      -273.4249
  27   1.0000     -10.048121      -273.4233
  28   1.0000     -10.017943      -272.6021
  29   1.0000     -10.017590      -272.5925
  30   1.0000     -10.016951      -272.5751
  31   1.0000     -10.016796      -272.5709
  32   1.0000      -7.787134      -211.8987
  33   1.0000      -7.786470      -211.8806
  34   1.0000      -7.786361      -211.8777
  35   1.0000      -7.785279      -211.8482
  36   1.0000      -7.783426      -211.7978
  37   1.0000      -7.783080      -211.7884
  38   1.0000      -7.783048      -211.7875
  39   1.0000      -7.782912      -211.7838
  40   1.0000      -7.693744      -209.3574
  41   1.0000      -7.693699      -209.3562
  42   1.0000      -7.693399      -209.3480
  43   1.0000      -7.693328      -209.3461
  44   1.0000      -5.752137      -156.5236
  45   1.0000      -5.751457      -156.5051
  46   1.0000      -5.751354      -156.5023
  47   1.0000      -5.750122      -156.4688
  48   1.0000      -5.748519      -156.4252
  49   1.0000      -5.748358      -156.4208
  50   1.0000      -5.748041      -156.4122
  51   1.0000      -5.748033      -156.4119
  52   1.0000      -5.747993      -156.4108
  53   1.0000      -5.747931      -156.4092
  54   1.0000      -5.747862      -156.4073
  55   1.0000      -5.747058      -156.3854
  56   1.0000      -5.743908      -156.2997
  57   1.0000      -5.743598      -156.2913
  58   1.0000      -5.743566      -156.2904
  59   1.0000      -5.743449      -156.2872
  60   1.0000      -5.741943      -156.2462
  61   1.0000      -5.741272      -156.2279
  62   1.0000      -5.741159      -156.2249
  63   1.0000      -5.740136      -156.1971
  64   1.0000      -5.739267      -156.1734
  65   1.0000      -5.738888      -156.1631
  66   1.0000      -5.738862      -156.1624
  67   1.0000      -5.738728      -156.1587
  68   1.0000      -5.659053      -153.9907
  69   1.0000      -5.659009      -153.9895
  70   1.0000      -5.658733      -153.9820
  71   1.0000      -5.658643      -153.9795
  72   1.0000      -5.652396      -153.8095
  73   1.0000      -5.652347      -153.8082
  74   1.0000      -5.652064      -153.8005
  75   1.0000      -5.651993      -153.7985
  76   1.0000      -5.651059      -153.7731
  77   1.0000      -5.651029      -153.7723
  78   1.0000      -5.650700      -153.7634
  79   1.0000      -5.650637      -153.7616
  80   1.0000      -2.443544       -66.4922
  81   1.0000      -1.484855       -40.4050
  82   1.0000      -1.473178       -40.0872
  83   1.0000      -1.472363       -40.0650
  84   1.0000      -0.715701       -19.4752
  85   1.0000      -0.709287       -19.3007
  86   1.0000      -0.694205       -18.8903
  87   1.0000      -0.685255       -18.6467
  88   1.0000      -0.649522       -17.6744
  89   1.0000      -0.647274       -17.6132
  90   1.0000      -0.631004       -17.1705
  91   1.0000      -0.616963       -16.7884
  92   1.0000      -0.612609       -16.6699
  93   1.0000      -0.575517       -15.6606
  94   1.0000      -0.574207       -15.6250
  95   1.0000      -0.572771       -15.5859
  96   1.0000      -0.570426       -15.5221
  97   1.0000      -0.505042       -13.7429
  98   1.0000      -0.495777       -13.4908
  99   1.0000      -0.495660       -13.4876
 100   1.0000      -0.484572       -13.1859
 101   1.0000      -0.478345       -13.0164
 102   1.0000      -0.474432       -12.9100
 103   1.0000      -0.446146       -12.1402
 104   1.0000      -0.440825       -11.9954
 105   1.0000      -0.416183       -11.3249
 106   1.0000      -0.410973       -11.1831
 107   1.0000      -0.361145        -9.8273
 108   1.0000      -0.354969        -9.6592
 109   1.0000      -0.334102        -9.0914
 110   1.0000      -0.326258        -8.8779
 111   1.0000      -0.319823        -8.7028
 112   1.0000      -0.315440        -8.5836
 113   1.0000      -0.306315        -8.3352
 114   1.0000      -0.303600        -8.2614
 115   1.0000      -0.292036        -7.9467
 116   1.0000      -0.291470        -7.9313
 117   1.0000      -0.265265        -7.2182
 118   1.0000      -0.259094        -7.0503
 119   1.0000      -0.256587        -6.9821
 120   1.0000      -0.256115        -6.9692
 121   1.0000      -0.239435        -6.5154
 122   1.0000      -0.234182        -6.3724
 123   1.0000      -0.230307        -6.2670
 124   1.0000      -0.219644        -5.9768
 125   1.0000      -0.217594        -5.9210
 126   1.0000      -0.216484        -5.8908
 127   1.0000      -0.211801        -5.7634
 128   1.0000      -0.209641        -5.7046
 129   1.0000      -0.192124        -5.2280
 130   1.0000      -0.186999        -5.0885
 131   1.0000      -0.184531        -5.0213
 132   1.0000      -0.181638        -4.9426
 133   1.0000      -0.176632        -4.8064
 134   1.0000      -0.159086        -4.3290
 135   1.0000      -0.150881        -4.1057
 136   1.0000      -0.146129        -3.9764
 137   1.0000      -0.134536        -3.6609
 138   1.0000      -0.133415        -3.6304
 139   1.0000      -0.132628        -3.6090
 140   1.0000      -0.124662        -3.3922
 141   1.0000      -0.120669        -3.2836
 142   1.0000      -0.113104        -3.0777
 143   1.0000      -0.109231        -2.9723
 144   1.0000      -0.099322        -2.7027
 145   1.0000      -0.097742        -2.6597
 146   1.0000      -0.097063        -2.6412
 147   1.0000      -0.094331        -2.5669
 148   1.0000      -0.074098        -2.0163
 149   1.0000      -0.067258        -1.8302
 150   1.0000      -0.066764        -1.8167
 151   1.0000      -0.051932        -1.4132
 152   1.0000      -0.045184        -1.2295
 153   1.0000      -0.037081        -1.0090
 154   1.0000      -0.036693        -0.9985
 155   1.0000      -0.030866        -0.8399
 156   1.0000      -0.024551        -0.6681
 157   1.0000      -0.018713        -0.5092
 158   1.0000      -0.015031        -0.4090
 159   1.0000       0.020811         0.5663
 160   1.0000       0.041658         1.1336
 161   0.0000       0.136971         3.7272
 162   0.0000       0.137579         3.7437
 163   0.0000       0.157705         4.2914
 164   0.0000       0.162498         4.4218
 165   0.0000       0.168665         4.5896

                 SPIN DOWN ORBITALS
  NO   OCC          E(Eh)            E(eV)
   0   1.0000    -196.674640     -5351.7890
   1   1.0000     -88.733021     -2414.5483
   2   1.0000     -88.732936     -2414.5459
   3   1.0000     -88.732903     -2414.5451
   4   1.0000     -88.732379     -2414.5308
   5   1.0000     -88.730086     -2414.4684
   6   1.0000     -88.729819     -2414.4611
   7   1.0000     -88.729758     -2414.4595
   8   1.0000     -88.729713     -2414.4582
   9   1.0000     -88.639572     -2412.0054
  10   1.0000     -88.639527     -2412.0042
  11   1.0000     -88.639301     -2411.9980
  12   1.0000     -88.639111     -2411.9928
  13   1.0000     -22.034962      -599.6018
  14   1.0000     -18.893585      -514.1206
  15   1.0000     -18.551075      -504.8004
  16   1.0000     -18.535133      -504.3666
  17   1.0000     -18.534951      -504.3617
  18   1.0000     -10.075607      -274.1712
  19   1.0000     -10.075516      -274.1687
  20   1.0000     -10.072603      -274.0895
  21   1.0000     -10.063082      -273.8304
  22   1.0000     -10.063032      -273.8290
  23   1.0000     -10.053109      -273.5590
  24   1.0000     -10.051152      -273.5058
  25   1.0000     -10.050961      -273.5005
  26   1.0000     -10.048177      -273.4248
  27   1.0000     -10.048110      -273.4230
  28   1.0000     -10.017704      -272.5956
  29   1.0000     -10.017376      -272.5867
  30   1.0000     -10.016729      -272.5690
  31   1.0000     -10.016584      -272.5651
  32   1.0000      -7.787135      -211.8987
  33   1.0000      -7.786470      -211.8806
  34   1.0000      -7.786362      -211.8777
  35   1.0000      -7.785280      -211.8482
  36   1.0000      -7.783435      -211.7980
  37   1.0000      -7.783090      -211.7886
  38   1.0000      -7.783057      -211.7878
  39   1.0000      -7.782922      -211.7841
  40   1.0000      -7.693872      -209.3609
  41   1.0000      -7.693829      -209.3597
  42   1.0000      -7.693531      -209.3516
  43   1.0000      -7.693457      -209.3496
  44   1.0000      -5.752138      -156.5236
  45   1.0000      -5.751458      -156.5051
  46   1.0000      -5.751355      -156.5023
  47   1.0000      -5.750123      -156.4688
  48   1.0000      -5.748520      -156.4252
  49   1.0000      -5.748369      -156.4211
  50   1.0000      -5.748044      -156.4122
  51   1.0000      -5.748042      -156.4122
  52   1.0000      -5.748004      -156.4111
  53   1.0000      -5.747932      -156.4092
  54   1.0000      -5.747872      -156.4076
  55   1.0000      -5.747059      -156.3854
  56   1.0000      -5.743922      -156.3001
  57   1.0000      -5.743613      -156.2916
  58   1.0000      -5.743580      -156.2908
  59   1.0000      -5.743463      -156.2876
  60   1.0000      -5.741944      -156.2462
  61   1.0000      -5.741273      -156.2280
  62   1.0000      -5.741160      -156.2249
  63   1.0000      -5.740137      -156.1971
  64   1.0000      -5.739277      -156.1737
  65   1.0000      -5.738894      -156.1632
  66   1.0000      -5.738868      -156.1625
  67   1.0000      -5.738736      -156.1589
  68   1.0000      -5.659195      -153.9945
  69   1.0000      -5.659148      -153.9932
  70   1.0000      -5.658875      -153.9858
  71   1.0000      -5.658784      -153.9834
  72   1.0000      -5.652747      -153.8191
  73   1.0000      -5.652734      -153.8187
  74   1.0000      -5.652447      -153.8109
  75   1.0000      -5.652353      -153.8084
  76   1.0000      -5.651164      -153.7760
  77   1.0000      -5.651115      -153.7747
  78   1.0000      -5.650793      -153.7659
  79   1.0000      -5.650743      -153.7645
  80   1.0000      -2.398656       -65.2707
  81   1.0000      -1.465555       -39.8798
  82   1.0000      -1.410801       -38.3898
  83   1.0000      -1.410636       -38.3853
  84   1.0000      -0.715690       -19.4749
  85   1.0000      -0.709272       -19.3003
  86   1.0000      -0.694146       -18.8887
  87   1.0000      -0.685212       -18.6456
  88   1.0000      -0.657561       -17.8931
  89   1.0000      -0.647310       -17.6142
  90   1.0000      -0.630946       -17.1689
  91   1.0000      -0.616965       -16.7885
  92   1.0000      -0.612567       -16.6688
  93   1.0000      -0.575478       -15.6595
  94   1.0000      -0.574185       -15.6244
  95   1.0000      -0.572707       -15.5841
  96   1.0000      -0.570360       -15.5203
  97   1.0000      -0.505055       -13.7432
  98   1.0000      -0.495803       -13.4915
  99   1.0000      -0.495706       -13.4888
 100   1.0000      -0.484730       -13.1902
 101   1.0000      -0.478544       -13.0218
 102   1.0000      -0.474571       -12.9137
 103   1.0000      -0.446176       -12.1411
 104   1.0000      -0.440854       -11.9963
 105   1.0000      -0.416180       -11.3248
 106   1.0000      -0.411083       -11.1861
 107   1.0000      -0.361138        -9.8271
 108   1.0000      -0.354965        -9.6591
 109   1.0000      -0.334092        -9.0911
 110   1.0000      -0.326248        -8.8777
 111   1.0000      -0.319758        -8.7011
 112   1.0000      -0.315449        -8.5838
 113   1.0000      -0.306270        -8.3340
 114   1.0000      -0.303566        -8.2605
 115   1.0000      -0.292031        -7.9466
 116   1.0000      -0.291461        -7.9311
 117   1.0000      -0.265239        -7.2175
 118   1.0000      -0.258959        -7.0466
 119   1.0000      -0.256526        -6.9804
 120   1.0000      -0.256073        -6.9681
 121   1.0000      -0.239346        -6.5129
 122   1.0000      -0.234150        -6.3715
 123   1.0000      -0.230268        -6.2659
 124   1.0000      -0.219337        -5.9685
 125   1.0000      -0.217546        -5.9197
 126   1.0000      -0.216208        -5.8833
 127   1.0000      -0.211625        -5.7586
 128   1.0000      -0.209576        -5.7029
 129   1.0000      -0.190227        -5.1763
 130   1.0000      -0.186918        -5.0863
 131   1.0000      -0.184330        -5.0159
 132   1.0000      -0.181466        -4.9379
 133   1.0000      -0.176508        -4.8030
 134   1.0000      -0.158467        -4.3121
 135   1.0000      -0.150714        -4.1011
 136   1.0000      -0.146053        -3.9743
 137   1.0000      -0.133780        -3.6403
 138   1.0000      -0.133150        -3.6232
 139   1.0000      -0.132412        -3.6031
 140   1.0000      -0.124126        -3.3776
 141   1.0000      -0.120346        -3.2748
 142   1.0000      -0.114909        -3.1268
 143   1.0000      -0.110816        -3.0155
 144   1.0000      -0.099302        -2.7021
 145   1.0000      -0.098080        -2.6689
 146   1.0000      -0.097039        -2.6406
 147   1.0000      -0.094658        -2.5758
 148   1.0000      -0.070265        -1.9120
 149   1.0000      -0.067243        -1.8298
 150   1.0000      -0.066769        -1.8169
 151   1.0000      -0.049337        -1.3425
 152   1.0000      -0.044250        -1.2041
 153   1.0000      -0.037124        -1.0102
 154   1.0000      -0.036127        -0.9831
 155   1.0000      -0.030906        -0.8410
 156   1.0000      -0.025589        -0.6963
 157   1.0000      -0.015240        -0.4147
 158   1.0000       0.021103         0.5742
 159   1.0000       0.040558         1.1036
 160   0.0000       0.136979         3.7274
 161   0.0000       0.137570         3.7435
 162   0.0000       0.155582         4.2336
 163   0.0000       0.158776         4.3205
 164   0.0000       0.163315         4.4440

MULLIKEN ATOMIC CHARGES AND SPIN POPULATIONS
--------------------------------------------
   0 V :    0.471102    1.210679
   1 S :   -0.291077   -0.022426
   2 S :   -0.289606   -0.025234
   3 S :   -0.289201   -0.023400
   4 S :   -0.285454   -0.025595
   5 O :   -0.467948   -0.146748
   6 C :   -0.076752    0.009723
   7 C :   -0.085628    0.008003
   8 C :   -0.084134    0.007705
   9 C :   -0.084480    0.007413
  10 S :    0.094446   -0.000567
  11 S :    0.105835   -0.000642
  12 S :    0.100067   -0.000394
  13 S :    0.099144   -0.000345
  14 C :   -0.211668    0.001500
  15 C :   -0.212399    0.001000
  16 C :   -0.194167   -0.000059
  17 C :   -0.190445   -0.000407
  18 S :    0.018704   -0.000111
  19 S :   -0.006271   -0.000114
  20 S :    0.008180   -0.000068
  21 S :    0.008212   -0.000071
  22 C :   -0.301204   -0.000001
  23 C :   -0.300014   -0.000001
  24 C :   -0.157909   -0.000012
  25 H :    0.143462   -0.000001
  26 H :    0.113696   -0.000004
  27 H :    0.083495   -0.000000
  28 H :    0.092098   -0.000001
  29 H :    0.113316   -0.000005
  30 H :    0.142886   -0.000001
  31 C :   -0.302087    0.000224
  32 C :   -0.306005    0.000149
  33 C :   -0.124900   -0.000222
  34 H :    0.148712   -0.000017
  35 H :    0.119259    0.000019
  36 H :    0.088712    0.000024
  37 H :    0.072576    0.000009
  38 H :    0.104076    0.000016
  39 H :    0.133370   -0.000015
Sum of atomic charges         :   -2.0000000

LOEWDIN ATOMIC CHARGES AND SPIN POPULATIONS
-------------------------------------------
   0 V :   -0.156034    1.164052
   1 S :    0.079920   -0.014466
   2 S :    0.079179   -0.016101
   3 S :    0.081243   -0.015274
   4 S :    0.083329   -0.016242
   5 O :   -0.319111   -0.131654
   6 C :   -0.549493    0.009051
   7 C :   -0.552652    0.007950
   8 C :   -0.552441    0.008128
   9 C :   -0.552398    0.007665
  10 S :    0.467173   -0.000893
  11 S :    0.476136   -0.000957
  12 S :    0.471343   -0.000823
  13 S :    0.470526   -0.000829
  14 C :   -0.465189    0.000164
  15 C :   -0.465171   -0.000081
  16 C :   -0.622659    0.000471
  17 C :   -0.622206    0.000084
  18 S :    0.375291   -0.000086
  19 S :    0.338025   -0.000090
  20 S :    0.358951   -0.000073
  21 S :    0.358530   -0.000075
  22 C :   -0.283320   -0.000007
  23 C :   -0.283414   -0.000009
  24 C :   -0.176122   -0.000002
  25 H :    0.062572   -0.000001
  26 H :    0.053595   -0.000002
  27 H :    0.057994   -0.000002
  28 H :    0.060161   -0.000001
  29 H :    0.053530   -0.000002
  30 H :    0.062385   -0.000002
  31 C :   -0.279000    0.000045
  32 C :   -0.296108    0.000035
  33 C :   -0.171535    0.000010
  34 H :    0.062337   -0.000001
  35 H :    0.052928    0.000008
  36 H :    0.058650    0.000005
  37 H :    0.064853    0.000001
  38 H :    0.054780    0.000007
  39 H :    0.063419    0.000000

  Mayer bond orders larger than 0.100000
B(  0-V ,  1-S ) :   0.7718 B(  0-V ,  2-S ) :   0.7711 B(  0-V ,  3-S ) :   0.7652
B(  0-V ,  4-S ) :   0.7783 B(  0-V ,  5-O ) :   2.1485 B(  1-S ,  8-C ) :   1.1034
B(  2-S ,  6-C ) :   1.1042 B(  3-S ,  9-C ) :   1.1063 B(  4-S ,  7-C ) :   1.1049
B(  6-C ,  7-C ) :   1.6846 B(  6-C , 10-S ) :   0.9360 B(  7-C , 11-S ) :   0.9383
B(  8-C ,  9-C ) :   1.6986 B(  8-C , 13-S ) :   0.9336 B(  9-C , 12-S ) :   0.9353
B( 10-S , 14-C ) :   1.2412 B( 11-S , 14-C ) :   1.2543 B( 12-S , 15-C ) :   1.2467
B( 13-S , 15-C ) :   1.2467 B( 14-C , 16-C ) :   1.4523 B( 15-C , 17-C ) :   1.4537
B( 16-C , 18-S ) :   1.0897 B( 16-C , 19-S ) :   1.0832 B( 17-C , 20-S ) :   1.0882
B( 17-C , 21-S ) :   1.0883 B( 18-S , 32-C ) :   0.9775 B( 19-S , 31-C ) :   0.9960
B( 20-S , 23-C ) :   0.9913 B( 21-S , 22-C ) :   0.9908 B( 22-C , 24-C ) :   0.9130
B( 22-C , 25-H ) :   0.9658 B( 22-C , 26-H ) :   0.9655 B( 23-C , 24-C ) :   0.9136
B( 23-C , 29-H ) :   0.9656 B( 23-C , 30-H ) :   0.9656 B( 24-C , 27-H ) :   0.9625
B( 24-C , 28-H ) :   0.9719 B( 31-C , 33-C ) :   0.9170 B( 31-C , 38-H ) :   0.9768
B( 31-C , 39-H ) :   0.9635 B( 32-C , 33-C ) :   0.8681 B( 32-C , 34-H ) :   0.9660
B( 32-C , 35-H ) :   0.9563 B( 33-C , 36-H ) :   0.9754 B( 33-C , 37-H ) :   0.9594

FINAL SINGLE POINT ENERGY     -6337.658028288478

DIPOLE MOMENT
-------------
                                X             Y             Z
Electronic contribution:     -7.77369       6.96981       8.75053
Nuclear contribution   :      8.63960      -7.73332      -9.76010
                        -----------------------------------------
Total Dipole Moment    :      0.86591      -0.76351      -1.00957
                        -----------------------------------------
Magnitude (a.u.)       :      1.53362
Magnitude (Debye)      :      3.89815

Rotational constants in cm-1:     0.010757     0.000804     0.000783
Rotational constants in MHz :   322.476738    24.116152    23.486205

                             ****ORCA TERMINATED NORMALLY****
TOTAL RUN TIME: 0 days 1 hours 2 minutes 46 seconds 561 msec
