                         Program Version 5.0.4 -  RELEASE  -
|  1> ! nofrozencore ReducedPop printbasis
|  2> ! B3LYP TZVP
|  3>
|  4> %basis
|  5> newgto V "CP(PPP)" end
|  6> end
|  7>
|  8> %pal
|  9> nprocs 8
| 10> end
| 11>
| 12> % sym SymThresh 1e-2 end
| 13> * xyz -2 2
| 14> V 0.6739370819532097 -0.7481875895908954 -0.4742659667723993
| 15> S -0.08618218541842364 -1.9922003913936723 1.524105099437832
| 16> S -1.609467983989487 -1.1289216318196151 -1.3507691027812838
| 17> S 2.1322836445511144 0.5106264219176947 1.0812080506282535
| 18> S 0.5793848755398174 1.395540249738043 -1.6910738676476527
| 19> O 1.6116182682740527 -1.7238703190390972 -1.3070168962581872
| 20> C -1.6021981166657022 0.025590712210977026 -2.6775535381923574
| 21> C -0.7267150104097495 1.0392413803149332 -2.81154378173207
| 22> C 1.0477831414340788 -1.415425992376234 2.737188343230017
| 23> C 1.9314720514885777 -0.4136965434980458 2.560376662977007
| 24> S -2.8911700737770185 -0.08305250015148617 -3.924543847425428
| 25> S -0.9829966618611949 2.1421683926774833 -4.203980366300408
| 26> S 2.941843444222756 0.02184487069720069 3.9794762694843175
| 27> S 1.0156604948995613 -2.1722773242977893 4.365894560869401
| 28> C -2.4194850913148174 1.3444043289772958 -4.855513147065451
| 29> C 2.2322630921493767 -1.1322819718741879 5.109370585972641
| 30> C -3.0849697931356097 1.780145856360027 -5.967112390301364
| 31> C 2.600406879446337 -1.2211988794169757 6.432837344838037
| 32> S -4.497311863165238 0.9135954074559092 -6.62436205195932
| 33> S -2.5666932896259342 3.2312629075026864 -6.86324099331034
| 34> S 1.85009274580288 -2.393866008271865 7.537123283761059
| 35> S 3.811885196899023 -0.13061378434053852 7.142033414852618
| 36> C 2.713588725212686 0.7328735190749622 8.342374770332203
| 37> C 1.0447464244655944 -1.198277963713041 8.683566200751917
| 38> C 2.079532381983304 -0.2480685987991446 9.404783543741594
| 39> H 2.133542229862454 1.37815816215646 7.650103275670537
| 40> H 3.249613367824445 1.3561311307481234 9.117485520721077
| 41> H 1.4894567398135303 0.3820099578211504 10.090047902539142
| 42> H 2.8196652694860567 -0.7782012101181635 10.02098441454909
| 43> H 0.6619200232787305 -1.6452382990423453 9.648309487536869
| 44> H 0.2030975472610754 -0.8518347589037432 8.048264440384582
| 45> C -2.1518263453889137 2.426335957875755 -8.478786817730903
| 46> C -3.787908326749918 0.45229375167995584 -8.272525020918035
| 47> C -3.311404852734658 1.6475625948948887 -9.093720988653523
| 48> H -2.957655100338136 -0.240710694311972 -8.115219687511155
| 49> H -4.5930702038897735 -0.08906297276025431 -8.77573891529893
| 50> H -4.153600807798899 2.3285355504506913 -9.25116083681473
| 51> H -2.9958683826540935 1.282993182535136 -10.081286469317343
| 52> H -1.8315612975137443 3.25057200843328 -9.121168521228013
| 53> H -1.2988299149394336 1.7598603551727803 -8.32862677353089
| 54> *
| 55>
| 56> % eprnmr
| 57> gtensor true
| 58> Nuclei = all H {aiso,adip,aorb,fgrad,rho}
| 59> Nuclei = all V {aiso,adip,aorb,fgrad,rho}
| 60> end
| 61>
| 62>                          ****END OF INPUT****

CARTESIAN COORDINATES (ANGSTROEM)
---------------------------------
  V      0.671049   -0.745737   -0.474859
  S     -0.089070   -1.989750    1.523513
  S     -1.612356   -1.126471   -1.351362
  S      2.129395    0.513077    1.080615
  S      0.576497    1.397991   -1.691666
  O      1.608730   -1.721420   -1.307609
  C     -1.605086    0.028041   -2.678146
  C     -0.729603    1.041692   -2.812136
  C      1.044895   -1.412976    2.736596
  C      1.928584   -0.411246    2.559784
  S     -2.894058   -0.080602   -3.925136
  S     -0.985885    2.144619   -4.204573
  S      2.938955    0.024295    3.978884
  S      1.012772   -2.169827    4.365302
  C     -2.422373    1.346855   -4.856106
  C      2.229375   -1.129832    5.108778
  C     -3.087858    1.782596   -5.967705
  C      2.597519   -1.218749    6.432245
  S     -4.500200    0.916046   -6.624955
  S     -2.569582    3.233713   -6.863834
  S      1.847204   -2.391416    7.536531
  S      3.808997   -0.128164    7.141441
  C      2.710700    0.735324    8.341782
  C      1.041858   -1.195828    8.682974
  C      2.076644   -0.245618    9.404191
  H      2.130654    1.380608    7.649511
  H      3.246725    1.358581    9.116893
  H      1.486568    0.384460   10.089455
  H      2.816777   -0.775751   10.020392
  H      0.659032   -1.642788    9.647717
  H      0.200209   -0.849384    8.047672
  C     -2.154715    2.428786   -8.479379
  C     -3.790797    0.454744   -8.273118
  C     -3.314293    1.650013   -9.094314
  H     -2.960543   -0.238260   -8.115812
  H     -4.595959   -0.086613   -8.776331
  H     -4.156489    2.330986   -9.251753
  H     -2.998757    1.285443  -10.081879
  H     -1.834450    3.253022   -9.121761
  H     -1.301718    1.762311   -8.329219

 Total Charge           Charge          ....   -2
 Multiplicity           Mult            ....    2
 Number of Electrons    NEL             ....  321
 Basis Dimension        Dim             ....  681

ORBITAL ENERGIES
----------------
                 SPIN UP ORBITALS
  NO   OCC          E(Eh)            E(eV)
   0   1.0000    -196.675220     -5351.8048
   1   1.0000     -88.733606     -2414.5642
   2   1.0000     -88.733592     -2414.5638
   3   1.0000     -88.731826     -2414.5157
   4   1.0000     -88.731758     -2414.5139
   5   1.0000     -88.730455     -2414.4784
   6   1.0000     -88.730362     -2414.4759
   7   1.0000     -88.730292     -2414.4740
   8   1.0000     -88.730135     -2414.4697
   9   1.0000     -88.640535     -2412.0316
  10   1.0000     -88.640006     -2412.0172
  11   1.0000     -88.639906     -2412.0145
  12   1.0000     -88.639772     -2412.0108
  13   1.0000     -22.050614      -600.0277
  14   1.0000     -18.890517      -514.0371
  15   1.0000     -18.557060      -504.9633
  16   1.0000     -18.551890      -504.8226
  17   1.0000     -18.551791      -504.8199
  18   1.0000     -10.077690      -274.2279
  19   1.0000     -10.075855      -274.1780
  20   1.0000     -10.067535      -273.9515
  21   1.0000     -10.067456      -273.9494
  22   1.0000     -10.063814      -273.8503
  23   1.0000     -10.063764      -273.8489
  24   1.0000     -10.062902      -273.8255
  25   1.0000     -10.050868      -273.4980
  26   1.0000     -10.048864      -273.4435
  27   1.0000     -10.048438      -273.4319
  28   1.0000     -10.019150      -272.6349
  29   1.0000     -10.018367      -272.6136
  30   1.0000     -10.018340      -272.6129
  31   1.0000     -10.017391      -272.5871
  32   1.0000      -7.787036      -211.8960
  33   1.0000      -7.787023      -211.8957
  34   1.0000      -7.785080      -211.8428
  35   1.0000      -7.785044      -211.8418
  36   1.0000      -7.784198      -211.8188
  37   1.0000      -7.784106      -211.8163
  38   1.0000      -7.783552      -211.8012
  39   1.0000      -7.783426      -211.7978
  40   1.0000      -7.694805      -209.3863
  41   1.0000      -7.694386      -209.3749
  42   1.0000      -7.694251      -209.3712
  43   1.0000      -7.694001      -209.3644
  44   1.0000      -5.752028      -156.5206
  45   1.0000      -5.752021      -156.5205
  46   1.0000      -5.749996      -156.4654
  47   1.0000      -5.749958      -156.4643
  48   1.0000      -5.749144      -156.4422
  49   1.0000      -5.749048      -156.4396
  50   1.0000      -5.748610      -156.4276
  51   1.0000      -5.748605      -156.4275
  52   1.0000      -5.748495      -156.4245
  53   1.0000      -5.748375      -156.4212
  54   1.0000      -5.745781      -156.3507
  55   1.0000      -5.745694      -156.3483
  56   1.0000      -5.745573      -156.3450
  57   1.0000      -5.745541      -156.3441
  58   1.0000      -5.744070      -156.3041
  59   1.0000      -5.743934      -156.3004
  60   1.0000      -5.741828      -156.2431
  61   1.0000      -5.741814      -156.2427
  62   1.0000      -5.740952      -156.2193
  63   1.0000      -5.740912      -156.2182
  64   1.0000      -5.739372      -156.1763
  65   1.0000      -5.739246      -156.1728
  66   1.0000      -5.738952      -156.1648
  67   1.0000      -5.738859      -156.1623
  68   1.0000      -5.660120      -154.0197
  69   1.0000      -5.659683      -154.0078
  70   1.0000      -5.659536      -154.0038
  71   1.0000      -5.659340      -153.9985
  72   1.0000      -5.653468      -153.8387
  73   1.0000      -5.653033      -153.8268
  74   1.0000      -5.652885      -153.8228
  75   1.0000      -5.652677      -153.8172
  76   1.0000      -5.652138      -153.8025
  77   1.0000      -5.651701      -153.7906
  78   1.0000      -5.651574      -153.7871
  79   1.0000      -5.651295      -153.7796
  80   1.0000      -2.444262       -66.5118
  81   1.0000      -1.485550       -40.4239
  82   1.0000      -1.473910       -40.1071
  83   1.0000      -1.473091       -40.0848
  84   1.0000      -0.709881       -19.3169
  85   1.0000      -0.708548       -19.2806
  86   1.0000      -0.686186       -18.6721
  87   1.0000      -0.681931       -18.5563
  88   1.0000      -0.650088       -17.6898
  89   1.0000      -0.631860       -17.1938
  90   1.0000      -0.628276       -17.0962
  91   1.0000      -0.617634       -16.8067
  92   1.0000      -0.614037       -16.7088
  93   1.0000      -0.575963       -15.6727
  94   1.0000      -0.574500       -15.6329
  95   1.0000      -0.574099       -15.6220
  96   1.0000      -0.573105       -15.5950
  97   1.0000      -0.497306       -13.5324
  98   1.0000      -0.496281       -13.5045
  99   1.0000      -0.495651       -13.4873
 100   1.0000      -0.491897       -13.3852
 101   1.0000      -0.479384       -13.0447
 102   1.0000      -0.476859       -12.9760
 103   1.0000      -0.446965       -12.1625
 104   1.0000      -0.443504       -12.0684
 105   1.0000      -0.415962       -11.3189
 106   1.0000      -0.410866       -11.1802
 107   1.0000      -0.356889        -9.7114
 108   1.0000      -0.341851        -9.3022
 109   1.0000      -0.327402        -8.9091
 110   1.0000      -0.319468        -8.6932
 111   1.0000      -0.314932        -8.5697
 112   1.0000      -0.314726        -8.5641
 113   1.0000      -0.309473        -8.4212
 114   1.0000      -0.304511        -8.2862
 115   1.0000      -0.298727        -8.1288
 116   1.0000      -0.290922        -7.9164
 117   1.0000      -0.267786        -7.2868
 118   1.0000      -0.259467        -7.0605
 119   1.0000      -0.256735        -6.9861
 120   1.0000      -0.250245        -6.8095
 121   1.0000      -0.246876        -6.7178
 122   1.0000      -0.232954        -6.3390
 123   1.0000      -0.231557        -6.3010
 124   1.0000      -0.221435        -6.0255
 125   1.0000      -0.218123        -5.9354
 126   1.0000      -0.213888        -5.8202
 127   1.0000      -0.213079        -5.7982
 128   1.0000      -0.204473        -5.5640
 129   1.0000      -0.193633        -5.2690
 130   1.0000      -0.186396        -5.0721
 131   1.0000      -0.183856        -5.0030
 132   1.0000      -0.183405        -4.9907
 133   1.0000      -0.174057        -4.7363
 134   1.0000      -0.159898        -4.3511
 135   1.0000      -0.149872        -4.0782
 136   1.0000      -0.138746        -3.7755
 137   1.0000      -0.136139        -3.7045
 138   1.0000      -0.135367        -3.6835
 139   1.0000      -0.132985        -3.6187
 140   1.0000      -0.125605        -3.4179
 141   1.0000      -0.121615        -3.3093
 142   1.0000      -0.113790        -3.0964
 143   1.0000      -0.110068        -2.9951
 144   1.0000      -0.100553        -2.7362
 145   1.0000      -0.098546        -2.6816
 146   1.0000      -0.096949        -2.6381
 147   1.0000      -0.093992        -2.5577
 148   1.0000      -0.074836        -2.0364
 149   1.0000      -0.067923        -1.8483
 150   1.0000      -0.064178        -1.7464
 151   1.0000      -0.052699        -1.4340
 152   1.0000      -0.045950        -1.2504
 153   1.0000      -0.037527        -1.0212
 154   1.0000      -0.037303        -1.0151
 155   1.0000      -0.031202        -0.8491
 156   1.0000      -0.025460        -0.6928
 157   1.0000      -0.019440        -0.5290
 158   1.0000      -0.015800        -0.4299
 159   1.0000       0.020016         0.5447
 160   1.0000       0.040859         1.1118
 161   0.0000       0.134795         3.6680
 162   0.0000       0.136728         3.7206
 163   0.0000       0.158531         4.3138
 164   0.0000       0.162050         4.4096
 165   0.0000       0.169657         4.6166

                 SPIN DOWN ORBITALS
  NO   OCC          E(Eh)            E(eV)
   0   1.0000    -196.675367     -5351.8088
   1   1.0000     -88.733606     -2414.5642
   2   1.0000     -88.733593     -2414.5638
   3   1.0000     -88.731834     -2414.5159
   4   1.0000     -88.731766     -2414.5141
   5   1.0000     -88.730456     -2414.4785
   6   1.0000     -88.730362     -2414.4759
   7   1.0000     -88.730300     -2414.4742
   8   1.0000     -88.730143     -2414.4699
   9   1.0000     -88.640672     -2412.0353
  10   1.0000     -88.640144     -2412.0209
  11   1.0000     -88.640047     -2412.0183
  12   1.0000     -88.639914     -2412.0147
  13   1.0000     -22.035684      -599.6215
  14   1.0000     -18.894299      -514.1400
  15   1.0000     -18.551794      -504.8200
  16   1.0000     -18.535857      -504.3863
  17   1.0000     -18.535675      -504.3814
  18   1.0000     -10.077689      -274.2279
  19   1.0000     -10.075850      -274.1778
  20   1.0000     -10.067535      -273.9516
  21   1.0000     -10.067456      -273.9494
  22   1.0000     -10.063813      -273.8503
  23   1.0000     -10.063763      -273.8489
  24   1.0000     -10.062902      -273.8255
  25   1.0000     -10.050868      -273.4980
  26   1.0000     -10.048859      -273.4434
  27   1.0000     -10.048427      -273.4316
  28   1.0000     -10.018936      -272.6291
  29   1.0000     -10.018155      -272.6079
  30   1.0000     -10.018101      -272.6064
  31   1.0000     -10.017168      -272.5810
  32   1.0000      -7.787037      -211.8961
  33   1.0000      -7.787024      -211.8957
  34   1.0000      -7.785090      -211.8431
  35   1.0000      -7.785054      -211.8421
  36   1.0000      -7.784199      -211.8188
  37   1.0000      -7.784106      -211.8163
  38   1.0000      -7.783561      -211.8015
  39   1.0000      -7.783436      -211.7981
  40   1.0000      -7.694932      -209.3897
  41   1.0000      -7.694515      -209.3784
  42   1.0000      -7.694382      -209.3748
  43   1.0000      -7.694132      -209.3680
  44   1.0000      -5.752029      -156.5207
  45   1.0000      -5.752023      -156.5205
  46   1.0000      -5.750007      -156.4656
  47   1.0000      -5.749969      -156.4646
  48   1.0000      -5.749145      -156.4422
  49   1.0000      -5.749049      -156.4396
  50   1.0000      -5.748611      -156.4277
  51   1.0000      -5.748606      -156.4275
  52   1.0000      -5.748506      -156.4248
  53   1.0000      -5.748386      -156.4215
  54   1.0000      -5.745782      -156.3507
  55   1.0000      -5.745695      -156.3483
  56   1.0000      -5.745587      -156.3454
  57   1.0000      -5.745555      -156.3445
  58   1.0000      -5.744084      -156.3045
  59   1.0000      -5.743947      -156.3008
  60   1.0000      -5.741829      -156.2431
  61   1.0000      -5.741815      -156.2427
  62   1.0000      -5.740958      -156.2194
  63   1.0000      -5.740918      -156.2183
  64   1.0000      -5.739380      -156.1765
  65   1.0000      -5.739255      -156.1731
  66   1.0000      -5.738953      -156.1648
  67   1.0000      -5.738860      -156.1623
  68   1.0000      -5.660262      -154.0236
  69   1.0000      -5.659823      -154.0116
  70   1.0000      -5.659675      -154.0076
  71   1.0000      -5.659481      -154.0023
  72   1.0000      -5.653817      -153.8482
  73   1.0000      -5.653391      -153.8366
  74   1.0000      -5.653274      -153.8334
  75   1.0000      -5.653060      -153.8276
  76   1.0000      -5.652244      -153.8054
  77   1.0000      -5.651806      -153.7935
  78   1.0000      -5.651661      -153.7895
  79   1.0000      -5.651389      -153.7821
  80   1.0000      -2.399383       -65.2905
  81   1.0000      -1.466260       -39.8990
  82   1.0000      -1.411535       -38.4098
  83   1.0000      -1.411376       -38.4055
  84   1.0000      -0.709856       -19.3162
  85   1.0000      -0.708527       -19.2800
  86   1.0000      -0.686130       -18.6705
  87   1.0000      -0.681890       -18.5552
  88   1.0000      -0.658202       -17.9106
  89   1.0000      -0.631785       -17.1917
  90   1.0000      -0.628220       -17.0947
  91   1.0000      -0.617634       -16.8067
  92   1.0000      -0.614039       -16.7088
  93   1.0000      -0.575939       -15.6721
  94   1.0000      -0.574471       -15.6321
  95   1.0000      -0.574027       -15.6201
  96   1.0000      -0.573028       -15.5929
  97   1.0000      -0.497320       -13.5328
  98   1.0000      -0.496325       -13.5057
  99   1.0000      -0.495680       -13.4882
 100   1.0000      -0.491987       -13.3877
 101   1.0000      -0.479566       -13.0496
 102   1.0000      -0.477073       -12.9818
 103   1.0000      -0.446987       -12.1631
 104   1.0000      -0.443555       -12.0697
 105   1.0000      -0.415960       -11.3188
 106   1.0000      -0.410969       -11.1830
 107   1.0000      -0.356880        -9.7112
 108   1.0000      -0.341837        -9.3019
 109   1.0000      -0.327387        -8.9086
 110   1.0000      -0.319389        -8.6910
 111   1.0000      -0.314957        -8.5704
 112   1.0000      -0.314722        -8.5640
 113   1.0000      -0.309471        -8.4211
 114   1.0000      -0.304466        -8.2849
 115   1.0000      -0.298694        -8.1279
 116   1.0000      -0.290915        -7.9162
 117   1.0000      -0.267766        -7.2863
 118   1.0000      -0.259415        -7.0590
 119   1.0000      -0.256617        -6.9829
 120   1.0000      -0.250173        -6.8076
 121   1.0000      -0.246779        -6.7152
 122   1.0000      -0.232928        -6.3383
 123   1.0000      -0.231512        -6.2998
 124   1.0000      -0.221111        -6.0167
 125   1.0000      -0.217921        -5.9299
 126   1.0000      -0.213664        -5.8141
 127   1.0000      -0.213015        -5.7964
 128   1.0000      -0.204472        -5.5640
 129   1.0000      -0.191879        -5.2213
 130   1.0000      -0.186047        -5.0626
 131   1.0000      -0.183789        -5.0012
 132   1.0000      -0.183195        -4.9850
 133   1.0000      -0.173869        -4.7312
 134   1.0000      -0.159278        -4.3342
 135   1.0000      -0.149735        -4.0745
 136   1.0000      -0.138644        -3.7727
 137   1.0000      -0.135329        -3.6825
 138   1.0000      -0.135238        -3.6800
 139   1.0000      -0.132818        -3.6142
 140   1.0000      -0.124966        -3.4005
 141   1.0000      -0.121279        -3.3002
 142   1.0000      -0.115575        -3.1450
 143   1.0000      -0.111653        -3.0382
 144   1.0000      -0.100588        -2.7372
 145   1.0000      -0.098838        -2.6895
 146   1.0000      -0.096986        -2.6391
 147   1.0000      -0.094250        -2.5647
 148   1.0000      -0.071013        -1.9324
 149   1.0000      -0.067923        -1.8483
 150   1.0000      -0.064171        -1.7462
 151   1.0000      -0.050106        -1.3634
 152   1.0000      -0.045013        -1.2249
 153   1.0000      -0.037350        -1.0163
 154   1.0000      -0.036970        -1.0060
 155   1.0000      -0.031217        -0.8495
 156   1.0000      -0.026497        -0.7210
 157   1.0000      -0.016018        -0.4359
 158   1.0000       0.020313         0.5527
 159   1.0000       0.039755         1.0818
 160   0.0000       0.134795         3.6680
 161   0.0000       0.136738         3.7208
 162   0.0000       0.155045         4.2190
 163   0.0000       0.159520         4.3408
 164   0.0000       0.162851         4.4314

MULLIKEN ATOMIC CHARGES AND SPIN POPULATIONS
--------------------------------------------
   0 V :    0.471322    1.210526
   1 S :   -0.289552   -0.022359
   2 S :   -0.289847   -0.025253
   3 S :   -0.287716   -0.023254
   4 S :   -0.285617   -0.025768
   5 O :   -0.467533   -0.146667
   6 C :   -0.077282    0.009710
   7 C :   -0.084042    0.008063
   8 C :   -0.085656    0.007723
   9 C :   -0.086589    0.007378
  10 S :    0.099426   -0.000582
  11 S :    0.100693   -0.000627
  12 S :    0.103391   -0.000383
  13 S :    0.102437   -0.000342
  14 C :   -0.216951    0.001508
  15 C :   -0.172579    0.000928
  16 C :   -0.185490   -0.000064
  17 C :   -0.258362   -0.000346
  18 S :    0.008144   -0.000115
  19 S :    0.008466   -0.000113
  20 S :    0.017598   -0.000062
  21 S :    0.017533   -0.000064
  22 C :   -0.311287   -0.000005
  23 C :   -0.311500   -0.000006
  24 C :   -0.143306   -0.000007
  25 H :    0.159665   -0.000001
  26 H :    0.091851   -0.000002
  27 H :    0.082698    0.000001
  28 H :    0.111597   -0.000001
  29 H :    0.091629   -0.000002
  30 H :    0.159491   -0.000001
  31 C :   -0.298730    0.000194
  32 C :   -0.298819    0.000190
  33 C :   -0.158599   -0.000238
  34 H :    0.140117   -0.000018
  35 H :    0.114520    0.000019
  36 H :    0.090933    0.000024
  37 H :    0.083229    0.000014
  38 H :    0.114468    0.000020
  39 H :    0.140249   -0.000018
Sum of atomic charges         :   -2.0000000

LOEWDIN ATOMIC CHARGES AND SPIN POPULATIONS
-------------------------------------------
   0 V :   -0.155596    1.163914
   1 S :    0.080844   -0.014408
   2 S :    0.079300   -0.016108
   3 S :    0.082167   -0.015165
   4 S :    0.083250   -0.016363
   5 O :   -0.318896   -0.131586
   6 C :   -0.549900    0.009063
   7 C :   -0.552049    0.007951
   8 C :   -0.552413    0.008117
   9 C :   -0.552426    0.007670
  10 S :    0.470929   -0.000896
  11 S :    0.471888   -0.000950
  12 S :    0.476046   -0.000820
  13 S :    0.475233   -0.000831
  14 C :   -0.465061    0.000159
  15 C :   -0.466037   -0.000078
  16 C :   -0.622064    0.000473
  17 C :   -0.628596    0.000091
  18 S :    0.358967   -0.000090
  19 S :    0.360354   -0.000087
  20 S :    0.356291   -0.000068
  21 S :    0.355836   -0.000070
  22 C :   -0.303509   -0.000007
  23 C :   -0.303737   -0.000008
  24 C :   -0.172398   -0.000001
  25 H :    0.071517   -0.000001
  26 H :    0.059406   -0.000002
  27 H :    0.055774   -0.000001
  28 H :    0.068753   -0.000001
  29 H :    0.059476   -0.000002
  30 H :    0.071356   -0.000001
  31 C :   -0.283489    0.000043
  32 C :   -0.283173    0.000036
  33 C :   -0.176905    0.000006
  34 H :    0.061879   -0.000001
  35 H :    0.053728    0.000008
  36 H :    0.059559    0.000004
  37 H :    0.058104    0.000002
  38 H :    0.053803    0.000008
  39 H :    0.061789   -0.000001

  Mayer bond orders larger than 0.100000
B(  0-V ,  1-S ) :   0.7705 B(  0-V ,  2-S ) :   0.7720 B(  0-V ,  3-S ) :   0.7639
B(  0-V ,  4-S ) :   0.7793 B(  0-V ,  5-O ) :   2.1489 B(  1-S ,  8-C ) :   1.1055
B(  2-S ,  6-C ) :   1.1040 B(  3-S ,  9-C ) :   1.1082 B(  4-S ,  7-C ) :   1.1043
B(  6-C ,  7-C ) :   1.6851 B(  6-C , 10-S ) :   0.9351 B(  7-C , 11-S ) :   0.9388
B(  8-C ,  9-C ) :   1.6930 B(  8-C , 13-S ) :   0.9346 B(  9-C , 12-S ) :   0.9368
B( 10-S , 14-C ) :   1.2484 B( 11-S , 14-C ) :   1.2484 B( 12-S , 15-C ) :   1.2452
B( 13-S , 15-C ) :   1.2454 B( 14-C , 16-C ) :   1.4541 B( 15-C , 17-C ) :   1.4242
B( 16-C , 18-S ) :   1.0854 B( 16-C , 19-S ) :   1.0865 B( 17-C , 20-S ) :   1.1168
B( 17-C , 21-S ) :   1.1177 B( 18-S , 32-C ) :   0.9922 B( 19-S , 31-C ) :   0.9923
B( 20-S , 23-C ) :   0.9911 B( 21-S , 22-C ) :   0.9904 B( 22-C , 24-C ) :   0.8899
B( 22-C , 25-H ) :   0.9645 B( 22-C , 26-H ) :   0.9636 B( 23-C , 24-C ) :   0.8902
B( 23-C , 29-H ) :   0.9635 B( 23-C , 30-H ) :   0.9645 B( 24-C , 27-H ) :   0.9732
B( 24-C , 28-H ) :   0.9601 B( 31-C , 33-C ) :   0.9151 B( 31-C , 38-H ) :   0.9656
B( 31-C , 39-H ) :   0.9656 B( 32-C , 33-C ) :   0.9148 B( 32-C , 34-H ) :   0.9656
B( 32-C , 35-H ) :   0.9656 B( 33-C , 36-H ) :   0.9721 B( 33-C , 37-H ) :   0.9622

FINAL SINGLE POINT ENERGY     -6337.670867221080

DIPOLE MOMENT
-------------
                                X             Y             Z
Electronic contribution:      8.88833      -9.93516      -2.78965
Nuclear contribution   :     -9.92521      11.07052       2.98782
                        -----------------------------------------
Total Dipole Moment    :     -1.03688       1.13536       0.19817
                        -----------------------------------------
Magnitude (a.u.)       :      1.55030
Magnitude (Debye)      :      3.94055

Rotational constants in cm-1:     0.010770     0.000804     0.000783
Rotational constants in MHz :   322.868014    24.113723    23.484883

                             ****ORCA TERMINATED NORMALLY****
TOTAL RUN TIME: 0 days 1 hours 1 minutes 58 seconds 664 msec
