                         Program Version 5.0.4 -  RELEASE  -
|  1> ! RIJCOSX nofrozencore ReducedPop printbasis
|  2> ! M06L ano-rcc-dzp autoaux
|  3>
|  4> %maxcore 5000
|  5> %basis
|  6> PCDTrimBas overlap
|  7> PCDTrimAuxJ Coulomb
|  8> PCDTrimAuxJK Coulomb
|  9> PCDTrimAuxC Coulomb
| 10> PCDThresh -1
| 11> end
| 12>
| 13> %basis
| 14> newgto Cu "ano-rcc-tzp" end
| 15> newgto S "ano-rcc-tzp" end
| 16> end
| 17>
| 18> %pal
| 19> nprocs 4
| 20> end
| 21>
| 22> % sym SymThresh 1e-2 end
| 23> * xyz -2 2
| 24> Cu 0.005991334532517182 -0.008957668050491467 0.013645317497833147
| 25> S -0.4955984011997578 -0.3288978764641188 -2.309996602974913
| 26> C -1.0309834524422723 1.0925003470108368 -2.8437446380797646
| 27> S 0.6664246096367786 -2.1527957938393083 0.24095628744286915
| 28> C 1.149904419794604 -2.2504709594002588 2.0323585288078267
| 29> S -0.7442720705101376 2.2145492961506617 -0.4785800293056142
| 30> C -1.1417152339247638 2.218840098182766 -2.035113410915818
| 31> S 0.40624519994499336 0.5189243124407052 2.1688040869531284
| 32> C 1.0352871310876792 -1.0768929179130362 2.8778832439838467
| 33> C 1.4443340404410867 -1.2898865959024248 4.249565854612843
| 34> C 1.6525720974909022 -3.426411269581911 2.7085990159862345
| 35> C 2.0421034908566353 -3.5865616743321507 4.061964538661423
| 36> H 1.7466315589061645 -4.318826302816273 2.092755756816677
| 37> C 1.933297615455866 -2.4654156289784415 4.872426788937776
| 38> H 1.3662244513232416 -0.4215846873577816 4.901440942925452
| 39> H 2.4018863373752994 -4.554402807469202 4.406679411579486
| 40> H 2.196965906123623 -2.447361207606922 5.9281259014552985
| 41> C -1.3637054187640014 1.0815982293990523 -4.162809409487364
| 42> C -1.5933804391345108 3.4235331535662845 -2.479254966507682
| 43> C -1.8164144875003914 2.2848580810964982 -4.612633993948763
| 44> H -1.261033340092045 0.18057881064593165 -4.754320132047799
| 45> C -1.9279526853253552 3.417191118162401 -3.800553277855179
| 46> H -1.6617044138537094 4.272328335456377 -1.8104769959832818
| 47> H -2.1136199114466847 2.399793032104967 -5.653239994943657
| 48> H -2.3030116074003604 4.3229590201287165 -4.273813439728619
| 49> *
| 50>
| 51> % eprnmr
| 52> gtensor true
| 53> Nuclei = all H {aiso,adip,aorb,fgrad,rho}
| 54> Nuclei = all Cu {aiso,adip,aorb,fgrad,rho}
| 55> end
| 56>
| 57>                          ****END OF INPUT****

CARTESIAN COORDINATES (ANGSTROEM)
---------------------------------
  Cu     0.000000   -0.000000    0.017386
  S      0.000000   -1.572025   -1.793677
  C      0.000000   -0.695482   -3.142007
  S      0.000000   -1.652451    1.551379
  C      0.000000   -0.725489    3.160573
  S      0.000000    1.572025   -1.793677
  C      0.000000    0.695482   -3.142007
  S      0.000000    1.652451    1.551379
  C      0.000000    0.725489    3.160573
  C      0.000000    1.321238    4.479128
  C      0.000000   -1.321238    4.479128
  C      0.000000   -0.693839    5.750078
  H      0.000000   -2.409456    4.502226
  C      0.000000    0.693839    5.750078
  H      0.000000    2.409456    4.502226
  H      0.000000   -1.303496    6.651736
  H      0.000000    1.303496    6.651736
  C      0.000000   -1.446699   -4.276610
  C      0.000000    1.446699   -4.276610
  C      0.000000   -0.698942   -5.415611
  H      0.000000   -2.528297   -4.226917
  C      0.000000    0.698942   -5.415611
  H      0.000000    2.528297   -4.226917
  H      0.000000   -1.187141   -6.388435
  H      0.000000    1.187141   -6.388435

 Total Charge           Charge          ....   -2
 Multiplicity           Mult            ....    2
 Number of Electrons    NEL             ....  175
 Basis Dimension        Dim             ....  475

ORBITAL ENERGIES
----------------
                 SPIN UP ORBITALS
  NO   OCC          E(Eh)            E(eV)    Irrep
   0   1.0000    -318.179178     -8658.0956    1-A1
   1   1.0000     -88.023719     -2395.2472    1-B2
   2   1.0000     -88.023713     -2395.2470    2-A1
   3   1.0000     -88.000919     -2394.6267    2-B2
   4   1.0000     -88.000890     -2394.6259    3-A1
   5   1.0000     -38.024375     -1034.6958    4-A1
   6   1.0000     -33.527517      -912.3301    3-B2
   7   1.0000     -33.526647      -912.3064    5-A1
   8   1.0000     -33.513074      -911.9371    1-B1
   9   1.0000      -9.851401      -268.0703    6-A1
  10   1.0000      -9.851146      -268.0633    4-B2
  11   1.0000      -9.835651      -267.6417    7-A1
  12   1.0000      -9.835200      -267.6294    5-B2
  13   1.0000      -9.828459      -267.4460    6-B2
  14   1.0000      -9.828455      -267.4459    8-A1
  15   1.0000      -9.810308      -266.9520    9-A1
  16   1.0000      -9.809897      -266.9409    7-B2
  17   1.0000      -9.809104      -266.9193   10-A1
  18   1.0000      -9.808661      -266.9072    8-B2
  19   1.0000      -9.803686      -266.7719    9-B2
  20   1.0000      -9.803681      -266.7717   11-A1
  21   1.0000      -7.589828      -206.5297   10-B2
  22   1.0000      -7.589824      -206.5296   12-A1
  23   1.0000      -7.574321      -206.1077   11-B2
  24   1.0000      -7.574294      -206.1070   13-A1
  25   1.0000      -5.514041      -150.0447   12-B2
  26   1.0000      -5.514040      -150.0447   14-A1
  27   1.0000      -5.507510      -149.8670   13-B2
  28   1.0000      -5.507510      -149.8670   15-A1
  29   1.0000      -5.505650      -149.8163    1-A2
  30   1.0000      -5.505649      -149.8163    2-B1
  31   1.0000      -5.496517      -149.5678   14-B2
  32   1.0000      -5.496516      -149.5678   16-A1
  33   1.0000      -5.492209      -149.4506   15-B2
  34   1.0000      -5.492209      -149.4506   17-A1
  35   1.0000      -5.490430      -149.4022    2-A2
  36   1.0000      -5.490429      -149.4022    3-B1
  37   1.0000      -4.021937      -109.4425   18-A1
  38   1.0000      -2.543334       -69.2076   16-B2
  39   1.0000      -2.541682       -69.1627   19-A1
  40   1.0000      -2.514687       -68.4281    4-B1
  41   1.0000      -0.607606       -16.5338   20-A1
  42   1.0000      -0.580349       -15.7921   21-A1
  43   1.0000      -0.517371       -14.0784   17-B2
  44   1.0000      -0.512587       -13.9482   22-A1
  45   1.0000      -0.497659       -13.5420   23-A1
  46   1.0000      -0.474005       -12.8983   18-B2
  47   1.0000      -0.420675       -11.4471   19-B2
  48   1.0000      -0.396890       -10.7999   20-B2
  49   1.0000      -0.386396       -10.5144   24-A1
  50   1.0000      -0.377774       -10.2798   25-A1
  51   1.0000      -0.329929        -8.9778   26-A1
  52   1.0000      -0.317859        -8.6494   27-A1
  53   1.0000      -0.306331        -8.3357   21-B2
  54   1.0000      -0.283102        -7.7036   22-B2
  55   1.0000      -0.239234        -6.5099   28-A1
  56   1.0000      -0.218248        -5.9388   29-A1
  57   1.0000      -0.199216        -5.4209   30-A1
  58   1.0000      -0.188742        -5.1359   23-B2
  59   1.0000      -0.180928        -4.9233   31-A1
  60   1.0000      -0.176439        -4.8011   24-B2
  61   1.0000      -0.141126        -3.8402   25-B2
  62   1.0000      -0.135574        -3.6892   26-B2
  63   1.0000      -0.129915        -3.5352   32-A1
  64   1.0000      -0.129912        -3.5351    5-B1
  65   1.0000      -0.110122        -2.9966    6-B1
  66   1.0000      -0.108957        -2.9649   33-A1
  67   1.0000      -0.089809        -2.4438   34-A1
  68   1.0000      -0.070880        -1.9287   27-B2
  69   1.0000      -0.062151        -1.6912   35-A1
  70   1.0000      -0.056224        -1.5299   28-B2
  71   1.0000      -0.038346        -1.0435    7-B1
  72   1.0000      -0.037557        -1.0220    3-A2
  73   1.0000      -0.036501        -0.9932    8-B1
  74   1.0000      -0.031418        -0.8549   29-B2
  75   1.0000      -0.027017        -0.7352   36-A1
  76   1.0000      -0.015067        -0.4100    4-A2
  77   1.0000       0.000196         0.0053    5-A2
  78   1.0000       0.000452         0.0123   37-A1
  79   1.0000       0.002793         0.0760    9-B1
  80   1.0000       0.019003         0.5171   38-A1
  81   1.0000       0.024900         0.6776   39-A1
  82   1.0000       0.037709         1.0261   30-B2
  83   1.0000       0.051069         1.3897    6-A2
  84   1.0000       0.053556         1.4573    7-A2
  85   1.0000       0.060595         1.6489   10-B1
  86   1.0000       0.095681         2.6036   11-B1
  87   1.0000       0.106902         2.9090   31-B2
  88   0.0000       0.177809         4.8384   40-A1
  89   0.0000       0.185885         5.0582   41-A1
  90   0.0000       0.193975         5.2783   12-B1
  91   0.0000       0.194095         5.2816   32-B2
  92   0.0000       0.198154         5.3920    8-A2

                 SPIN DOWN ORBITALS
  NO   OCC          E(Eh)            E(eV)    Irrep
   0   1.0000    -318.179007     -8658.0909    1-A1
   1   1.0000     -88.022740     -2395.2205    1-B2
   2   1.0000     -88.022734     -2395.2204    2-A1
   3   1.0000     -87.999721     -2394.5942    2-B2
   4   1.0000     -87.999692     -2394.5934    3-A1
   5   1.0000     -38.008823     -1034.2727    4-A1
   6   1.0000     -33.512654      -911.9257    3-B2
   7   1.0000     -33.511823      -911.9031    5-A1
   8   1.0000     -33.508828      -911.8216    1-B1
   9   1.0000      -9.851554      -268.0744    6-A1
  10   1.0000      -9.851299      -268.0675    4-B2
  11   1.0000      -9.835646      -267.6415    7-A1
  12   1.0000      -9.835196      -267.6293    5-B2
  13   1.0000      -9.828428      -267.4451    6-B2
  14   1.0000      -9.828425      -267.4450    8-A1
  15   1.0000      -9.810243      -266.9503    9-A1
  16   1.0000      -9.809832      -266.9391    7-B2
  17   1.0000      -9.809156      -266.9207   10-A1
  18   1.0000      -9.808712      -266.9086    8-B2
  19   1.0000      -9.803565      -266.7686    9-B2
  20   1.0000      -9.803560      -266.7684   11-A1
  21   1.0000      -7.589158      -206.5115   10-B2
  22   1.0000      -7.589155      -206.5114   12-A1
  23   1.0000      -7.573501      -206.0854   11-B2
  24   1.0000      -7.573475      -206.0847   13-A1
  25   1.0000      -5.513224      -150.0225   12-B2
  26   1.0000      -5.513223      -150.0224   14-A1
  27   1.0000      -5.505433      -149.8105   13-B2
  28   1.0000      -5.505433      -149.8105   15-A1
  29   1.0000      -5.504899      -149.7959    1-A2
  30   1.0000      -5.504899      -149.7959    2-B1
  31   1.0000      -5.495377      -149.5368   14-B2
  32   1.0000      -5.495376      -149.5368   16-A1
  33   1.0000      -5.489778      -149.3844   15-B2
  34   1.0000      -5.489777      -149.3844   17-A1
  35   1.0000      -5.489525      -149.3776    2-A2
  36   1.0000      -5.489525      -149.3776    3-B1
  37   1.0000      -3.989028      -108.5470   18-A1
  38   1.0000      -2.503193       -68.1153    4-B1
  39   1.0000      -2.502256       -68.0899   16-B2
  40   1.0000      -2.500597       -68.0447   19-A1
  41   1.0000      -0.606657       -16.5080   20-A1
  42   1.0000      -0.580248       -15.7893   21-A1
  43   1.0000      -0.515367       -14.0239   17-B2
  44   1.0000      -0.510899       -13.9023   22-A1
  45   1.0000      -0.496804       -13.5187   23-A1
  46   1.0000      -0.473508       -12.8848   18-B2
  47   1.0000      -0.417222       -11.3532   19-B2
  48   1.0000      -0.392534       -10.6814   20-B2
  49   1.0000      -0.382987       -10.4216   24-A1
  50   1.0000      -0.375044       -10.2055   25-A1
  51   1.0000      -0.328248        -8.9321   26-A1
  52   1.0000      -0.316661        -8.6168   27-A1
  53   1.0000      -0.304699        -8.2913   21-B2
  54   1.0000      -0.280594        -7.6353   22-B2
  55   1.0000      -0.238919        -6.5013   28-A1
  56   1.0000      -0.217073        -5.9069   29-A1
  57   1.0000      -0.197612        -5.3773   30-A1
  58   1.0000      -0.188093        -5.1183   23-B2
  59   1.0000      -0.180341        -4.9073   31-A1
  60   1.0000      -0.175744        -4.7822   24-B2
  61   1.0000      -0.139167        -3.7869   25-B2
  62   1.0000      -0.134952        -3.6722   26-B2
  63   1.0000      -0.129390        -3.5209    5-B1
  64   1.0000      -0.128737        -3.5031   32-A1
  65   1.0000      -0.110149        -2.9973    6-B1
  66   1.0000      -0.108102        -2.9416   33-A1
  67   1.0000      -0.088371        -2.4047   34-A1
  68   1.0000      -0.066190        -1.8011   27-B2
  69   1.0000      -0.060134        -1.6363   35-A1
  70   1.0000      -0.045780        -1.2457   28-B2
  71   1.0000      -0.036733        -0.9996    7-B1
  72   1.0000      -0.035852        -0.9756    3-A2
  73   1.0000      -0.035449        -0.9646    8-B1
  74   1.0000      -0.020371        -0.5543   36-A1
  75   1.0000      -0.011496        -0.3128    4-A2
  76   1.0000      -0.002879        -0.0783   29-B2
  77   1.0000       0.008238         0.2242    5-A2
  78   1.0000       0.010442         0.2841   37-A1
  79   1.0000       0.014694         0.3998    9-B1
  80   1.0000       0.030692         0.8352   38-A1
  81   1.0000       0.036081         0.9818   39-A1
  82   1.0000       0.046944         1.2774   30-B2
  83   1.0000       0.053861         1.4656    6-A2
  84   1.0000       0.059223         1.6115    7-A2
  85   1.0000       0.063172         1.7190   10-B1
  86   1.0000       0.099365         2.7039   11-B1
  87   0.0000       0.138976         3.7817   31-B2
  88   0.0000       0.178570         4.8591   40-A1
  89   0.0000       0.188084         5.1180   41-A1
  90   0.0000       0.193913         5.2766   12-B1
  91   0.0000       0.195415         5.3175   32-B2

MULLIKEN ATOMIC CHARGES AND SPIN POPULATIONS
--------------------------------------------
   0 Cu:    0.137868    0.367697
   1 S :   -0.392100    0.175132
   2 C :    0.029708   -0.006954
   3 S :   -0.422297    0.153173
   4 C :    0.002449   -0.008670
   5 S :   -0.392100    0.175132
   6 C :    0.029708   -0.006954
   7 S :   -0.422297    0.153173
   8 C :    0.002449   -0.008670
   9 C :   -0.104086   -0.001934
  10 C :   -0.104086   -0.001934
  11 C :   -0.134998   -0.001062
  12 H :    0.087201    0.001562
  13 C :   -0.134998   -0.001062
  14 H :    0.087201    0.001562
  15 H :    0.027649    0.000743
  16 H :    0.027649    0.000743
  17 C :   -0.092313   -0.000883
  18 C :   -0.092313   -0.000883
  19 C :   -0.130902   -0.000374
  20 H :    0.031600    0.003195
  21 C :   -0.130902   -0.000374
  22 H :    0.031600    0.003195
  23 H :    0.029155    0.002224
  24 H :    0.029155    0.002224
Sum of atomic charges         :   -2.0000000

LOEWDIN ATOMIC CHARGES AND SPIN POPULATIONS
-------------------------------------------
   0 Cu:   -0.885803    0.435079
   1 S :    0.035227    0.130847
   2 C :   -0.112362    0.009080
   3 S :   -0.002477    0.117596
   4 C :    0.015824    0.001783
   5 S :    0.035227    0.130847
   6 C :   -0.112362    0.009080
   7 S :   -0.002477    0.117596
   8 C :    0.015824    0.001783
   9 C :    0.312998    0.001859
  10 C :    0.312998    0.001859
  11 C :    0.310546   -0.000468
  12 H :   -0.464830    0.004723
  13 C :    0.310546   -0.000468
  14 H :   -0.464830    0.004723
  15 H :   -0.411378    0.000050
  16 H :   -0.411378    0.000050
  17 C :    0.305564    0.007718
  18 C :    0.305564    0.007718
  19 C :    0.309671    0.000847
  20 H :   -0.430291    0.007659
  21 C :    0.309671    0.000847
  22 H :   -0.430291    0.007659
  23 H :   -0.425590    0.000767
  24 H :   -0.425590    0.000767

  Mayer bond orders larger than 0.100000
B(  0-Cu,  1-S ) :   0.6508 B(  0-Cu,  3-S ) :   0.7490 B(  0-Cu,  5-S ) :   0.6508
B(  0-Cu,  7-S ) :   0.7490 B(  1-S ,  2-C ) :   1.2621 B(  2-C ,  6-C ) :   1.2287
B(  2-C , 17-C ) :   1.2904 B(  3-S ,  4-C ) :   1.1294 B(  4-C ,  8-C ) :   1.2577
B(  4-C , 10-C ) :   1.3301 B(  5-S ,  6-C ) :   1.2621 B(  6-C , 18-C ) :   1.2904
B(  7-S ,  8-C ) :   1.1294 B(  8-C ,  9-C ) :   1.3301 B(  9-C , 13-C ) :   1.3593
B(  9-C , 14-H ) :   0.9615 B( 10-C , 11-C ) :   1.3593 B( 10-C , 12-H ) :   0.9615
B( 11-C , 13-C ) :   1.3416 B( 11-C , 15-H ) :   0.9918 B( 13-C , 16-H ) :   0.9918
B( 17-C , 19-C ) :   1.3656 B( 17-C , 20-H ) :   0.9853 B( 18-C , 21-C ) :   1.3656
B( 18-C , 22-H ) :   0.9853 B( 19-C , 21-C ) :   1.3271 B( 19-C , 23-H ) :   0.9887
B( 21-C , 24-H ) :   0.9887

FINAL SINGLE POINT ENERGY     -3686.854504498464

DIPOLE MOMENT
-------------
                                X             Y             Z
Electronic contribution:      0.00000      -0.00000      -0.80250
Nuclear contribution   :      0.00000       0.00000       0.93443
                        -----------------------------------------
Total Dipole Moment    :      0.00000      -0.00000       0.13194
                        -----------------------------------------
Magnitude (a.u.)       :      0.13194
Magnitude (Debye)      :      0.33536

Rotational constants in cm-1:     0.033436     0.004808     0.004204
Rotational constants in MHz :  1002.391307   144.139521   126.018594

                             ****ORCA TERMINATED NORMALLY****
TOTAL RUN TIME: 0 days 5 hours 29 minutes 41 seconds 758 msec
