                         Program Version 5.0.4 -  RELEASE  -
|  1> ! RIJCOSX nofrozencore ReducedPop printbasis
|  2> ! M06L ano-rcc-dzp autoaux
|  3>
|  4> %maxcore 5000
|  5> %basis
|  6> PCDTrimBas overlap
|  7> PCDTrimAuxJ Coulomb
|  8> PCDTrimAuxJK Coulomb
|  9> PCDTrimAuxC Coulomb
| 10> PCDThresh -1
| 11> end
| 12>
| 13> %basis
| 14> newgto Cu "ano-rcc-tzp" end
| 15> newgto S "ano-rcc-tzp" end
| 16> end
| 17>
| 18> %pal
| 19> nprocs 4
| 20> end
| 21>
| 22> % sym SymThresh 1e-2 end
| 23> * xyz -2 2
| 24> Cu 0.0006699827778678236 -0.0007645446502258936 0.0003954687790097731
| 25> S 0.05916776644499317 0.030011886358338406 -2.2710770711495294
| 26> C -1.117389500824376 1.362067924817108 -2.7158475892924976
| 27> S 1.5109280620960732 -1.6821964254872874 -0.10084059489311908
| 28> C 1.816473442718272 -2.0984154176534546 1.6766257606131156
| 29> S -1.517765279428685 1.6903522049789468 0.08844546834959159
| 30> C -1.809725257091692 2.090941724445217 -1.67800818405706
| 31> S -0.07130553400039931 -0.016256246318093533 2.266164888757339
| 32> C 1.1176128805953784 -1.3620862802306852 2.710386429657704
| 33> C 1.4414515194792281 -1.7804721570599826 4.05631409710222
| 34> C 2.71317714907175 -3.119986908676787 2.165876002041058
| 35> C 2.999833978776985 -3.4964866530297933 3.50270798383887
| 36> H 3.2463143582519787 -3.682752164863796 1.4019515397901838
| 37> C 2.3299259185957926 -2.79061131198437 4.492436980345125
| 38> H 0.9277692176627853 -1.2406531146283963 4.849311464122947
| 39> H 3.7096954789194942 -4.2971251011097475 3.699145756203425
| 40> H 2.4527955218757778 -2.9728533050724595 5.558761634526064
| 41> C -1.4320373909274808 1.770094367231824 -4.059388581757206
| 42> C -2.7055077096960995 3.1107310019303385 -2.1494325454104017
| 43> C -2.3219867560618157 2.7812349224576485 -4.480263032271378
| 44> H -0.9179222533071808 1.2297427625493544 -4.851287857426619
| 45> C -2.9873799710610838 3.481710966529377 -3.482023758732434
| 46> H -3.2344137544239033 3.668531191325574 -1.3797781506006082
| 47> H -2.4556807477089144 2.975368475854149 -5.5420513799250495
| 48> H -3.6969710652759162 4.282103853361598 -3.6797917191693643
| 49> *
| 50>
| 51> % eprnmr
| 52> gtensor true
| 53> Nuclei = all H {aiso,adip,aorb,fgrad,rho}
| 54> Nuclei = all Cu {aiso,adip,aorb,fgrad,rho}
| 55> end
| 56>
| 57>                          ****END OF INPUT****

CARTESIAN COORDINATES (ANGSTROEM)
---------------------------------
  Cu    -0.001022    0.000383    0.000000
  S      0.011577   -2.272016    0.000000
  C      1.794275   -2.694475    0.000000
  S     -2.259669   -0.129440    0.000000
  C     -2.795981    1.642099    0.000000
  S      2.270461    0.117176    0.000000
  C      2.785929   -1.643609    0.000000
  S      0.006827    2.267334    0.000000
  C     -1.794369    2.689010    0.000000
  C     -2.339046    4.028699    0.000000
  C     -4.161282    2.114332    0.000000
  C     -4.649841    3.445630    0.000000
  H     -4.926468    1.340374    0.000000
  C     -3.689671    4.447964    0.000000
  H     -1.604298    4.831359    0.000000
  H     -5.722236    3.628612    0.000000
  H     -3.920855    5.511878    0.000000
  C      2.325074   -4.031951    0.000000
  C      4.149063   -2.098035    0.000000
  C      3.677236   -4.435942    0.000000
  H      1.589626   -4.833521    0.000000
  C      4.630265   -3.425183    0.000000
  H      4.907656   -1.318428    0.000000
  H      3.924441   -5.495114    0.000000
  H      5.702314   -3.609500    0.000000

 Total Charge           Charge          ....   -2
 Multiplicity           Mult            ....    2
 Number of Electrons    NEL             ....  175
 Basis Dimension        Dim             ....  475

ORBITAL ENERGIES
----------------
                 SPIN UP ORBITALS
  NO   OCC          E(Eh)            E(eV)    Irrep
   0   1.0000    -318.186778     -8658.3024    1-A'
   1   1.0000     -88.024177     -2395.2596    2-A'
   2   1.0000     -88.023674     -2395.2459    3-A'
   3   1.0000     -88.022587     -2395.2164    4-A'
   4   1.0000     -88.022384     -2395.2108    5-A'
   5   1.0000     -38.032425     -1034.9149    6-A'
   6   1.0000     -33.535415      -912.5450    7-A'
   7   1.0000     -33.534523      -912.5208    8-A'
   8   1.0000     -33.520558      -912.1408    1-A"
   9   1.0000      -9.851032      -268.0602    9-A'
  10   1.0000      -9.850771      -268.0531   10-A'
  11   1.0000      -9.848251      -267.9845   11-A'
  12   1.0000      -9.847905      -267.9751   12-A'
  13   1.0000      -9.835585      -267.6399   13-A'
  14   1.0000      -9.834961      -267.6229   14-A'
  15   1.0000      -9.833669      -267.5877   15-A'
  16   1.0000      -9.833205      -267.5751   16-A'
  17   1.0000      -9.828576      -267.4491   17-A'
  18   1.0000      -9.827750      -267.4267   18-A'
  19   1.0000      -9.826371      -267.3891   19-A'
  20   1.0000      -9.826061      -267.3807   20-A'
  21   1.0000      -7.590427      -206.5460   21-A'
  22   1.0000      -7.589946      -206.5329   22-A'
  23   1.0000      -7.589143      -206.5111   23-A'
  24   1.0000      -7.589012      -206.5075   24-A'
  25   1.0000      -5.514616      -150.0603   25-A'
  26   1.0000      -5.514140      -150.0474   26-A'
  27   1.0000      -5.513191      -150.0215   27-A'
  28   1.0000      -5.513038      -150.0174   28-A'
  29   1.0000      -5.508227      -149.8865   29-A'
  30   1.0000      -5.507738      -149.8732   30-A'
  31   1.0000      -5.506975      -149.8524   31-A'
  32   1.0000      -5.506831      -149.8485   32-A'
  33   1.0000      -5.506211      -149.8316    2-A"
  34   1.0000      -5.505719      -149.8182    3-A"
  35   1.0000      -5.504965      -149.7977    4-A"
  36   1.0000      -5.504848      -149.7945    5-A"
  37   1.0000      -4.029379      -109.6450   33-A'
  38   1.0000      -2.551267       -69.4235   34-A'
  39   1.0000      -2.549117       -69.3650   35-A'
  40   1.0000      -2.521278       -68.6075    6-A"
  41   1.0000      -0.582188       -15.8421   36-A'
  42   1.0000      -0.581055       -15.8113   37-A'
  43   1.0000      -0.500016       -13.6061   38-A'
  44   1.0000      -0.498416       -13.5626   39-A'
  45   1.0000      -0.476941       -12.9782   40-A'
  46   1.0000      -0.474804       -12.9201   41-A'
  47   1.0000      -0.402406       -10.9500   42-A'
  48   1.0000      -0.396555       -10.7908   43-A'
  49   1.0000      -0.392033       -10.6678   44-A'
  50   1.0000      -0.380750       -10.3607   45-A'
  51   1.0000      -0.320845        -8.7306   46-A'
  52   1.0000      -0.316137        -8.6025   47-A'
  53   1.0000      -0.308694        -8.4000   48-A'
  54   1.0000      -0.303545        -8.2599   49-A'
  55   1.0000      -0.240768        -6.5516   50-A'
  56   1.0000      -0.236320        -6.4306   51-A'
  57   1.0000      -0.183014        -4.9801   52-A'
  58   1.0000      -0.181646        -4.9428   53-A'
  59   1.0000      -0.179688        -4.8896   54-A'
  60   1.0000      -0.173566        -4.7230   55-A'
  61   1.0000      -0.140539        -3.8243   56-A'
  62   1.0000      -0.138385        -3.7657   57-A'
  63   1.0000      -0.136211        -3.7065   58-A'
  64   1.0000      -0.115969        -3.1557   59-A'
  65   1.0000      -0.111589        -3.0365    7-A"
  66   1.0000      -0.110749        -3.0136    8-A"
  67   1.0000      -0.084014        -2.2861   60-A'
  68   1.0000      -0.078712        -2.1419   61-A'
  69   1.0000      -0.072267        -1.9665   62-A'
  70   1.0000      -0.052179        -1.4199   63-A'
  71   1.0000      -0.038863        -1.0575    9-A"
  72   1.0000      -0.037098        -1.0095   10-A"
  73   1.0000      -0.034165        -0.9297   64-A'
  74   1.0000      -0.032215        -0.8766   65-A'
  75   1.0000      -0.025453        -0.6926   11-A"
  76   1.0000      -0.009696        -0.2638   12-A"
  77   1.0000      -0.005387        -0.1466   66-A'
  78   1.0000      -0.003205        -0.0872   13-A"
  79   1.0000      -0.002350        -0.0639   14-A"
  80   1.0000       0.014498         0.3945   67-A'
  81   1.0000       0.016273         0.4428   68-A'
  82   1.0000       0.027871         0.7584   69-A'
  83   1.0000       0.050245         1.3672   15-A"
  84   1.0000       0.050592         1.3767   16-A"
  85   1.0000       0.051394         1.3985   17-A"
  86   1.0000       0.080974         2.2034   18-A"
  87   1.0000       0.108169         2.9434   70-A'
  88   0.0000       0.177741         4.8366   71-A'
  89   0.0000       0.178402         4.8546   72-A'
  90   0.0000       0.193134         5.2554   19-A"
  91   0.0000       0.194025         5.2797   73-A'
  92   0.0000       0.194472         5.2919   74-A'

                 SPIN DOWN ORBITALS
  NO   OCC          E(Eh)            E(eV)    Irrep
   0   1.0000    -318.186604     -8658.2977    1-A'
   1   1.0000     -88.023097     -2395.2303    2-A'
   2   1.0000     -88.022607     -2395.2169    3-A'
   3   1.0000     -88.021505     -2395.1869    4-A'
   4   1.0000     -88.021304     -2395.1814    5-A'
   5   1.0000     -38.016485     -1034.4812    6-A'
   6   1.0000     -33.520185      -912.1306    7-A'
   7   1.0000     -33.519347      -912.1078    8-A'
   8   1.0000     -33.516203      -912.0222    1-A"
   9   1.0000      -9.851185      -268.0644    9-A'
  10   1.0000      -9.850923      -268.0572   10-A'
  11   1.0000      -9.848397      -267.9885   11-A'
  12   1.0000      -9.848051      -267.9791   12-A'
  13   1.0000      -9.835576      -267.6396   13-A'
  14   1.0000      -9.834952      -267.6227   14-A'
  15   1.0000      -9.833658      -267.5874   15-A'
  16   1.0000      -9.833194      -267.5748   16-A'
  17   1.0000      -9.828534      -267.4480   17-A'
  18   1.0000      -9.827709      -267.4255   18-A'
  19   1.0000      -9.826325      -267.3879   19-A'
  20   1.0000      -9.826018      -267.3795   20-A'
  21   1.0000      -7.589691      -206.5260   21-A'
  22   1.0000      -7.589218      -206.5131   22-A'
  23   1.0000      -7.588405      -206.4910   23-A'
  24   1.0000      -7.588276      -206.4875   24-A'
  25   1.0000      -5.513707      -150.0356   25-A'
  26   1.0000      -5.513238      -150.0228   26-A'
  27   1.0000      -5.512273      -149.9966   27-A'
  28   1.0000      -5.512122      -149.9925   28-A'
  29   1.0000      -5.505960      -149.8248   29-A'
  30   1.0000      -5.505500      -149.8123   30-A'
  31   1.0000      -5.505383      -149.8091    2-A"
  32   1.0000      -5.504900      -149.7959    3-A"
  33   1.0000      -5.504707      -149.7907   31-A'
  34   1.0000      -5.504568      -149.7869   32-A'
  35   1.0000      -5.504135      -149.7751    4-A"
  36   1.0000      -5.504020      -149.7720    5-A"
  37   1.0000      -3.995834      -108.7322   33-A'
  38   1.0000      -2.509522       -68.2876    6-A"
  39   1.0000      -2.509400       -68.2842   34-A'
  40   1.0000      -2.507307       -68.2273   35-A'
  41   1.0000      -0.582009       -15.8373   36-A'
  42   1.0000      -0.580907       -15.8073   37-A'
  43   1.0000      -0.498919       -13.5763   38-A'
  44   1.0000      -0.497453       -13.5364   39-A'
  45   1.0000      -0.476259       -12.9597   40-A'
  46   1.0000      -0.474193       -12.9035   41-A'
  47   1.0000      -0.397735       -10.8229   42-A'
  48   1.0000      -0.391773       -10.6607   43-A'
  49   1.0000      -0.388162       -10.5624   44-A'
  50   1.0000      -0.377005       -10.2588   45-A'
  51   1.0000      -0.319841        -8.7033   46-A'
  52   1.0000      -0.314556        -8.5595   47-A'
  53   1.0000      -0.307162        -8.3583   48-A'
  54   1.0000      -0.301367        -8.2006   49-A'
  55   1.0000      -0.240442        -6.5427   50-A'
  56   1.0000      -0.235869        -6.4183   51-A'
  57   1.0000      -0.182269        -4.9598   52-A'
  58   1.0000      -0.180964        -4.9243   53-A'
  59   1.0000      -0.179173        -4.8755   54-A'
  60   1.0000      -0.172383        -4.6908   55-A'
  61   1.0000      -0.139051        -3.7838   56-A'
  62   1.0000      -0.137908        -3.7527   57-A'
  63   1.0000      -0.135667        -3.6917   58-A'
  64   1.0000      -0.115094        -3.1319   59-A'
  65   1.0000      -0.111563        -3.0358    7-A"
  66   1.0000      -0.110746        -3.0136    8-A"
  67   1.0000      -0.082172        -2.2360   60-A'
  68   1.0000      -0.076948        -2.0939   61-A'
  69   1.0000      -0.051932        -1.4131   62-A'
  70   1.0000      -0.050387        -1.3711   63-A'
  71   1.0000      -0.036568        -0.9951    9-A"
  72   1.0000      -0.036289        -0.9875   10-A"
  73   1.0000      -0.027501        -0.7483   64-A'
  74   1.0000      -0.018836        -0.5126   11-A"
  75   1.0000      -0.009467        -0.2576   65-A'
  76   1.0000      -0.009074        -0.2469   12-A"
  77   1.0000       0.003211         0.0874   13-A"
  78   1.0000       0.004786         0.1302   66-A'
  79   1.0000       0.008305         0.2260   14-A"
  80   1.0000       0.023134         0.6295   67-A'
  81   1.0000       0.030353         0.8259   68-A'
  82   1.0000       0.035850         0.9755   69-A'
  83   1.0000       0.052148         1.4190   15-A"
  84   1.0000       0.053639         1.4596   16-A"
  85   1.0000       0.057477         1.5640   17-A"
  86   1.0000       0.085581         2.3288   18-A"
  87   0.0000       0.141428         3.8484   70-A'
  88   0.0000       0.178703         4.8628   71-A'
  89   0.0000       0.179393         4.8815   72-A'
  90   0.0000       0.193021         5.2524   19-A"
  91   0.0000       0.195667         5.3244   73-A'

MULLIKEN ATOMIC CHARGES AND SPIN POPULATIONS
--------------------------------------------
   0 Cu:    0.159542    0.373052
   1 S :   -0.417995    0.165476
   2 C :    0.003859   -0.008055
   3 S :   -0.419052    0.164477
   4 C :    0.002246   -0.008443
   5 S :   -0.422500    0.165969
   6 C :    0.006431   -0.008275
   7 S :   -0.417611    0.165610
   8 C :    0.001764   -0.008386
   9 C :   -0.101243   -0.001956
  10 C :   -0.104851   -0.002080
  11 C :   -0.137922   -0.001096
  12 H :    0.086458    0.001841
  13 C :   -0.133539   -0.000996
  14 H :    0.087251    0.001667
  15 H :    0.027976    0.000912
  16 H :    0.027909    0.000859
  17 C :   -0.100877   -0.001881
  18 C :   -0.098992   -0.002145
  19 C :   -0.136882   -0.001014
  20 H :    0.083999    0.001690
  21 C :   -0.137248   -0.001050
  22 H :    0.084213    0.001967
  23 H :    0.028398    0.000932
  24 H :    0.028666    0.000924
Sum of atomic charges         :   -2.0000000

LOEWDIN ATOMIC CHARGES AND SPIN POPULATIONS
-------------------------------------------
   0 Cu:   -0.996291    0.441802
   1 S :   -0.011987    0.128847
   2 C :    0.008668    0.003427
   3 S :   -0.014416    0.127913
   4 C :    0.016197    0.002968
   5 S :   -0.012369    0.129187
   6 C :    0.009084    0.003326
   7 S :   -0.012806    0.129320
   8 C :    0.016690    0.002755
   9 C :    0.313064    0.002456
  10 C :    0.313468    0.002445
  11 C :    0.311815   -0.000397
  12 H :   -0.463300    0.005064
  13 C :    0.309924   -0.000372
  14 H :   -0.464443    0.005285
  15 H :   -0.411646    0.000119
  16 H :   -0.411058    0.000106
  17 C :    0.312172    0.002708
  18 C :    0.311623    0.002667
  19 C :    0.311235   -0.000336
  20 H :   -0.460791    0.005363
  21 C :    0.311356   -0.000369
  22 H :   -0.461277    0.005463
  23 H :   -0.412362    0.000134
  24 H :   -0.412548    0.000120

  Mayer bond orders larger than 0.100000
B(  0-Cu,  1-S ) :   0.7171 B(  0-Cu,  3-S ) :   0.7268 B(  0-Cu,  5-S ) :   0.7151
B(  0-Cu,  7-S ) :   0.7208 B(  1-S ,  2-C ) :   1.1409 B(  2-C ,  6-C ) :   1.2550
B(  2-C , 17-C ) :   1.3275 B(  3-S ,  4-C ) :   1.1299 B(  4-C ,  8-C ) :   1.2572
B(  4-C , 10-C ) :   1.3311 B(  5-S ,  6-C ) :   1.1389 B(  6-C , 18-C ) :   1.3288
B(  7-S ,  8-C ) :   1.1336 B(  8-C ,  9-C ) :   1.3275 B(  9-C , 13-C ) :   1.3602
B(  9-C , 14-H ) :   0.9611 B( 10-C , 11-C ) :   1.3590 B( 10-C , 12-H ) :   0.9619
B( 11-C , 13-C ) :   1.3410 B( 11-C , 15-H ) :   0.9921 B( 13-C , 16-H ) :   0.9918
B( 17-C , 19-C ) :   1.3606 B( 17-C , 20-H ) :   0.9623 B( 18-C , 21-C ) :   1.3599
B( 18-C , 22-H ) :   0.9623 B( 19-C , 21-C ) :   1.3409 B( 19-C , 23-H ) :   0.9915
B( 21-C , 24-H ) :   0.9912

FINAL SINGLE POINT ENERGY     -3686.886162626102

DIPOLE MOMENT
-------------
                                X             Y             Z
Electronic contribution:      0.03991      -0.04215       0.00000
Nuclear contribution   :     -0.04228       0.05072       0.00000
                        -----------------------------------------
Total Dipole Moment    :     -0.00238       0.00857       0.00000
                        -----------------------------------------
Magnitude (a.u.)       :      0.00889
Magnitude (Debye)      :      0.02261

Rotational constants in cm-1:     0.033008     0.004703     0.004116
Rotational constants in MHz :   989.557264   140.991541   123.408386

                             ****ORCA TERMINATED NORMALLY****
TOTAL RUN TIME: 0 days 5 hours 28 minutes 55 seconds 729 msec
