                         Program Version 5.0.4 -  RELEASE  -
|  1> ! RIJCOSX nofrozencore ReducedPop printbasis
|  2> ! M06L ano-rcc-dzp autoaux
|  3>
|  4> %maxcore 5000
|  5> %basis
|  6> PCDTrimBas overlap
|  7> PCDTrimAuxJ Coulomb
|  8> PCDTrimAuxJK Coulomb
|  9> PCDTrimAuxC Coulomb
| 10> PCDThresh -1
| 11> end
| 12>
| 13> %basis
| 14> newgto Cu "ano-rcc-tzp" end
| 15> newgto S "ano-rcc-tzp" end
| 16> end
| 17>
| 18> %pal
| 19> nprocs 12
| 20> end
| 21>
| 22> % sym SymThresh 1e-2 end
| 23> * xyz -2 2
| 24> Cu 6.60076554635604e-07 -6.542025915083251e-07 3.692125556968261e-07
| 25> S 1.0354575091722298 -0.12334593187301039 -2.0699714612004243
| 26> C 0.21287754886177007 -1.4191620105436453 -2.894839104435568
| 27> S 1.3701298077653121 1.7511955975073465 0.6543903545154645
| 28> C 0.8494867716857267 2.1337407622201385 2.27265682556456
| 29> S -1.3698334333922808 -1.7514893344709337 -0.6542245780779566
| 30> C -0.8469824412374393 -2.136222806852321 -2.271256033128246
| 31> S -1.0357459626266057 0.12363181840549953 2.069810115313585
| 32> C -0.21546306872627774 1.4217245220945836 2.8933928988549034
| 33> C -0.6104122970873149 1.8047922119710846 4.183651298799544
| 34> C 1.4930014600454198 3.142230119100016 3.0050246398691876
| 35> C 1.050587504850003 3.53798249168352 4.264205292949544
| 36> H 2.078937060943699 3.9020332963107998 2.3974853196302663
| 37> C 0.07521102117803839 2.7752517086036477 4.9088493881416735
| 38> H -1.1999707320026225 1.034749595294662 4.773259701100038
| 39> H 1.812013017510893 4.091575870214636 4.92936710849115
| 40> H -0.497413979866868 3.2744539167047284 5.77518968745963
| 41> C 0.5857473170690631 -1.7803460596811087 -4.197446844780568
| 42> C -1.4680929117785073 -3.166917672146259 -2.991092854455111
| 43> C -0.04589768146322586 -2.804304191489941 -4.892453027755733
| 44> H 1.3854113191088397 -1.218539962947828 -4.669533864127683
| 45> C -1.0800401207178436 -3.5087919720504184 -4.280679557184737
| 46> H -2.2656523564757345 -3.716980227506516 -2.501924925635371
| 47> H 0.2835096559269771 -3.0624518668496705 -5.894837515601523
| 48> H -1.597379140267484 -4.304298497831572 -4.8093129151607705
| 49> *
| 50>
| 51> % eprnmr
| 52> gtensor true
| 53> Nuclei = all H {aiso,adip,aorb,fgrad,rho}
| 54> Nuclei = all Cu {aiso,adip,aorb,fgrad,rho}
| 55> end
| 56>
| 57>                          ****END OF INPUT****

CARTESIAN COORDINATES (ANGSTROEM)
---------------------------------
  Cu    -0.000000    0.000000    0.000000
  S      1.245094    1.029512   -1.661931
  C      0.548627    0.453423   -3.151642
  S      1.245376    1.029171    1.661931
  C      0.551083    0.450452    3.151642
  S     -1.245094   -1.029512   -1.661931
  C     -0.548627   -0.453423   -3.151642
  S     -1.245376   -1.029171    1.661931
  C     -0.551083   -0.450452    3.151642
  C     -1.087017   -0.847914    4.385461
  C      1.087017    0.847914    4.385461
  C      0.507051    0.479656    5.596188
  H      1.710906    1.796390    4.375043
  C     -0.507051   -0.479656    5.596188
  H     -1.710906   -1.796390    4.375043
  H      1.179822    0.535873    6.530201
  H     -1.179822   -0.535873    6.530201
  C      1.063089    0.876855   -4.385460
  C     -1.063089   -0.876855   -4.385460
  C      0.535416    0.445348   -5.596188
  H      1.890532    1.579125   -4.375043
  C     -0.535416   -0.445348   -5.596188
  H     -1.890532   -1.579125   -4.375043
  H      0.972981    0.786053   -6.530201
  H     -0.972981   -0.786053   -6.530201

 Total Charge           Charge          ....   -2
 Multiplicity           Mult            ....    2
 Number of Electrons    NEL             ....  175
 Basis Dimension        Dim             ....  475

ORBITAL ENERGIES
----------------
                 SPIN UP ORBITALS
  NO   OCC          E(Eh)            E(eV)    Irrep
   0   1.0000    -318.183749     -8658.2200    1-A
   1   1.0000     -88.017815     -2395.0865    1-B
   2   1.0000     -88.017806     -2395.0863    2-A
   3   1.0000     -88.016243     -2395.0437    2-B
   4   1.0000     -88.016232     -2395.0434    3-A
   5   1.0000     -38.028981     -1034.8212    4-A
   6   1.0000     -33.532109      -912.4551    3-B
   7   1.0000     -33.531258      -912.4319    5-A
   8   1.0000     -33.517520      -912.0581    4-B
   9   1.0000      -9.836196      -267.6565    6-A
  10   1.0000      -9.835866      -267.6475    5-B
  11   1.0000      -9.834129      -267.6002    7-A
  12   1.0000      -9.833799      -267.5913    6-B
  13   1.0000      -9.828655      -267.4513    8-A
  14   1.0000      -9.828234      -267.4398    7-B
  15   1.0000      -9.825111      -267.3549    9-A
  16   1.0000      -9.824680      -267.3431    8-B
  17   1.0000      -9.821420      -267.2544    9-B
  18   1.0000      -9.821416      -267.2543   10-A
  19   1.0000      -9.817858      -267.1575   10-B
  20   1.0000      -9.817853      -267.1574   11-A
  21   1.0000      -7.586462      -206.4381   11-B
  22   1.0000      -7.586452      -206.4379   12-A
  23   1.0000      -7.584945      -206.3968   12-B
  24   1.0000      -7.584935      -206.3966   13-A
  25   1.0000      -5.509641      -149.9249   13-B
  26   1.0000      -5.509640      -149.9249   14-A
  27   1.0000      -5.508133      -149.8839   14-B
  28   1.0000      -5.508133      -149.8839   15-A
  29   1.0000      -5.504310      -149.7799   15-B
  30   1.0000      -5.504310      -149.7799   16-A
  31   1.0000      -5.502867      -149.7406   16-B
  32   1.0000      -5.502867      -149.7406   17-A
  33   1.0000      -5.502625      -149.7340   18-A
  34   1.0000      -5.502625      -149.7340   17-B
  35   1.0000      -5.501009      -149.6901   19-A
  36   1.0000      -5.501008      -149.6900   18-B
  37   1.0000      -4.026616      -109.5698   20-A
  38   1.0000      -2.548046       -69.3359   19-B
  39   1.0000      -2.546492       -69.2936   21-A
  40   1.0000      -2.519132       -68.5491   20-B
  41   1.0000      -0.591247       -16.0886   22-A
  42   1.0000      -0.590959       -16.0808   23-A
  43   1.0000      -0.505911       -13.7665   24-A
  44   1.0000      -0.504377       -13.7248   25-A
  45   1.0000      -0.491477       -13.3738   21-B
  46   1.0000      -0.489673       -13.3247   22-B
  47   1.0000      -0.411035       -11.1848   23-B
  48   1.0000      -0.408155       -11.1065   24-B
  49   1.0000      -0.388823       -10.5804   26-A
  50   1.0000      -0.381727       -10.3873   27-A
  51   1.0000      -0.322586        -8.7780   28-A
  52   1.0000      -0.316943        -8.6244   29-A
  53   1.0000      -0.300380        -8.1737   25-B
  54   1.0000      -0.293373        -7.9831   26-B
  55   1.0000      -0.232366        -6.3230   30-A
  56   1.0000      -0.216634        -5.8949   31-A
  57   1.0000      -0.191305        -5.2057   32-A
  58   1.0000      -0.190011        -5.1705   33-A
  59   1.0000      -0.177955        -4.8424   27-B
  60   1.0000      -0.172836        -4.7031   28-B
  61   1.0000      -0.146852        -3.9960   29-B
  62   1.0000      -0.135634        -3.6908   30-B
  63   1.0000      -0.131098        -3.5673   34-A
  64   1.0000      -0.118464        -3.2236   31-B
  65   1.0000      -0.113395        -3.0856   32-B
  66   1.0000      -0.112400        -3.0586   35-A
  67   1.0000      -0.086927        -2.3654   36-A
  68   1.0000      -0.070380        -1.9151   33-B
  69   1.0000      -0.066708        -1.8152   34-B
  70   1.0000      -0.064624        -1.7585   37-A
  71   1.0000      -0.040071        -1.0904   35-B
  72   1.0000      -0.038030        -1.0349   36-B
  73   1.0000      -0.032751        -0.8912   38-A
  74   1.0000      -0.031697        -0.8625   37-B
  75   1.0000      -0.026773        -0.7285   39-A
  76   1.0000      -0.018327        -0.4987   40-A
  77   1.0000      -0.004776        -0.1300   41-A
  78   1.0000      -0.002029        -0.0552   42-A
  79   1.0000      -0.000925        -0.0252   38-B
  80   1.0000       0.016126         0.4388   43-A
  81   1.0000       0.016902         0.4599   44-A
  82   1.0000       0.032460         0.8833   39-B
  83   1.0000       0.047835         1.3017   45-A
  84   1.0000       0.050130         1.3641   46-A
  85   1.0000       0.059765         1.6263   40-B
  86   1.0000       0.084750         2.3062   41-B
  87   1.0000       0.102771         2.7965   42-B
  88   0.0000       0.180586         4.9140   47-A
  89   0.0000       0.181464         4.9379   48-A
  90   0.0000       0.188991         5.1427   43-B
  91   0.0000       0.192834         5.2473   49-A
  92   0.0000       0.196036         5.3344   44-B

                 SPIN DOWN ORBITALS
  NO   OCC          E(Eh)            E(eV)    Irrep
   0   1.0000    -318.183576     -8658.2153    1-A
   1   1.0000     -88.016748     -2395.0575    1-B
   2   1.0000     -88.016738     -2395.0572    2-A
   3   1.0000     -88.015167     -2395.0144    2-B
   4   1.0000     -88.015156     -2395.0141    3-A
   5   1.0000     -38.013131     -1034.3899    4-A
   6   1.0000     -33.516966      -912.0430    3-B
   7   1.0000     -33.516147      -912.0207    5-A
   8   1.0000     -33.513205      -911.9407    4-B
   9   1.0000      -9.836305      -267.6595    6-A
  10   1.0000      -9.835974      -267.6505    5-B
  11   1.0000      -9.834243      -267.6034    7-A
  12   1.0000      -9.833913      -267.5944    6-B
  13   1.0000      -9.828637      -267.4508    8-A
  14   1.0000      -9.828216      -267.4394    7-B
  15   1.0000      -9.825088      -267.3542    9-A
  16   1.0000      -9.824658      -267.3425    8-B
  17   1.0000      -9.821367      -267.2530    9-B
  18   1.0000      -9.821364      -267.2529   10-A
  19   1.0000      -9.817799      -267.1559   10-B
  20   1.0000      -9.817794      -267.1558   11-A
  21   1.0000      -7.585732      -206.4183   11-B
  22   1.0000      -7.585723      -206.4180   12-A
  23   1.0000      -7.584210      -206.3768   12-B
  24   1.0000      -7.584200      -206.3766   13-A
  25   1.0000      -5.508716      -149.8998   13-B
  26   1.0000      -5.508715      -149.8998   14-A
  27   1.0000      -5.507200      -149.8585   14-B
  28   1.0000      -5.507199      -149.8585   15-A
  29   1.0000      -5.502085      -149.7193   15-B
  30   1.0000      -5.502084      -149.7193   16-A
  31   1.0000      -5.501797      -149.7115   17-A
  32   1.0000      -5.501797      -149.7115   16-B
  33   1.0000      -5.500613      -149.6793   17-B
  34   1.0000      -5.500613      -149.6793   18-A
  35   1.0000      -5.500190      -149.6678   19-A
  36   1.0000      -5.500190      -149.6678   18-B
  37   1.0000      -3.992923      -108.6530   20-A
  38   1.0000      -2.507440       -68.2309   19-B
  39   1.0000      -2.506024       -68.1924   20-B
  40   1.0000      -2.504466       -68.1500   21-A
  41   1.0000      -0.590867       -16.0783   22-A
  42   1.0000      -0.590596       -16.0709   23-A
  43   1.0000      -0.504582       -13.7304   24-A
  44   1.0000      -0.503088       -13.6897   25-A
  45   1.0000      -0.490429       -13.3452   21-B
  46   1.0000      -0.488561       -13.2944   22-B
  47   1.0000      -0.407046       -11.0763   23-B
  48   1.0000      -0.404077       -10.9955   24-B
  49   1.0000      -0.385571       -10.4919   26-A
  50   1.0000      -0.378489       -10.2992   27-A
  51   1.0000      -0.321291        -8.7428   28-A
  52   1.0000      -0.315581        -8.5874   29-A
  53   1.0000      -0.298471        -8.1218   25-B
  54   1.0000      -0.291242        -7.9251   26-B
  55   1.0000      -0.231736        -6.3059   30-A
  56   1.0000      -0.215984        -5.8772   31-A
  57   1.0000      -0.190329        -5.1791   32-A
  58   1.0000      -0.189104        -5.1458   33-A
  59   1.0000      -0.177353        -4.8260   27-B
  60   1.0000      -0.172100        -4.6831   28-B
  61   1.0000      -0.145858        -3.9690   29-B
  62   1.0000      -0.134447        -3.6585   30-B
  63   1.0000      -0.129818        -3.5325   34-A
  64   1.0000      -0.118276        -3.2185   31-B
  65   1.0000      -0.112749        -3.0681   32-B
  66   1.0000      -0.111473        -3.0333   35-A
  67   1.0000      -0.085626        -2.3300   36-A
  68   1.0000      -0.068774        -1.8714   33-B
  69   1.0000      -0.063000        -1.7143   37-A
  70   1.0000      -0.053263        -1.4493   34-B
  71   1.0000      -0.038279        -1.0416   35-B
  72   1.0000      -0.034376        -0.9354   36-B
  73   1.0000      -0.026786        -0.7289   38-A
  74   1.0000      -0.023098        -0.6285   39-A
  75   1.0000      -0.016346        -0.4448   40-A
  76   1.0000      -0.004856        -0.1321   37-B
  77   1.0000       0.004842         0.1318   41-A
  78   1.0000       0.008285         0.2254   42-A
  79   1.0000       0.011248         0.3061   38-B
  80   1.0000       0.023703         0.6450   43-A
  81   1.0000       0.031764         0.8644   44-A
  82   1.0000       0.040792         1.1100   39-B
  83   1.0000       0.050657         1.3785   45-A
  84   1.0000       0.055595         1.5128   46-A
  85   1.0000       0.061632         1.6771   40-B
  86   1.0000       0.088919         2.4196   41-B
  87   0.0000       0.135804         3.6954   42-B
  88   0.0000       0.181699         4.9443   47-A
  89   0.0000       0.182360         4.9623   48-A
  90   0.0000       0.189102         5.1457   43-B
  91   0.0000       0.193226         5.2579   49-A

MULLIKEN ATOMIC CHARGES AND SPIN POPULATIONS
--------------------------------------------
   0 Cu:    0.143869    0.374995
   1 S :   -0.424050    0.164054
   2 C :    0.023181   -0.007564
   3 S :   -0.411093    0.162666
   4 C :    0.049957   -0.007654
   5 S :   -0.424050    0.164054
   6 C :    0.023181   -0.007564
   7 S :   -0.411093    0.162666
   8 C :    0.049957   -0.007654
   9 C :   -0.081172   -0.001291
  10 C :   -0.081172   -0.001291
  11 C :   -0.124679   -0.001141
  12 H :    0.032340    0.001574
  13 C :   -0.124679   -0.001141
  14 H :    0.032340    0.001574
  15 H :   -0.004395    0.001212
  16 H :   -0.004395    0.001212
  17 C :   -0.090737   -0.001548
  18 C :   -0.090737   -0.001548
  19 C :   -0.137919   -0.000861
  20 H :    0.064940    0.001965
  21 C :   -0.137919   -0.000861
  22 H :    0.064940    0.001965
  23 H :    0.031694    0.001089
  24 H :    0.031694    0.001089
Sum of atomic charges         :   -2.0000000

LOEWDIN ATOMIC CHARGES AND SPIN POPULATIONS
-------------------------------------------
   0 Cu:   -0.892660    0.441965
   1 S :    0.009987    0.124824
   2 C :   -0.038172    0.005184
   3 S :    0.011838    0.123956
   4 C :   -0.044833    0.005400
   5 S :    0.009987    0.124824
   6 C :   -0.038172    0.005184
   7 S :    0.011838    0.123956
   8 C :   -0.044833    0.005400
   9 C :    0.272887    0.003607
  10 C :    0.272887    0.003607
  11 C :    0.262421   -0.000455
  12 H :   -0.409239    0.005961
  13 C :    0.262421   -0.000455
  14 H :   -0.409239    0.005961
  15 H :   -0.373071    0.000278
  16 H :   -0.373071    0.000278
  17 C :    0.306904    0.003903
  18 C :    0.306904    0.003903
  19 C :    0.312180   -0.000120
  20 H :   -0.446766    0.006278
  21 C :    0.312180   -0.000120
  22 H :   -0.446766    0.006278
  23 H :   -0.417806    0.000202
  24 H :   -0.417806    0.000202

  Mayer bond orders larger than 0.100000
B(  0-Cu,  1-S ) :   0.7025 B(  0-Cu,  3-S ) :   0.6979 B(  0-Cu,  5-S ) :   0.7025
B(  0-Cu,  7-S ) :   0.6979 B(  1-S ,  2-C ) :   1.1844 B(  2-C ,  6-C ) :   1.2447
B(  2-C , 17-C ) :   1.3179 B(  3-S ,  4-C ) :   1.1890 B(  4-C ,  8-C ) :   1.2298
B(  4-C , 10-C ) :   1.3194 B(  5-S ,  6-C ) :   1.1844 B(  6-C , 18-C ) :   1.3179
B(  7-S ,  8-C ) :   1.1890 B(  8-C ,  9-C ) :   1.3194 B(  9-C , 13-C ) :   1.3442
B(  9-C , 14-H ) :   0.9900 B( 10-C , 11-C ) :   1.3442 B( 10-C , 12-H ) :   0.9900
B( 11-C , 13-C ) :   1.3257 B( 11-C , 15-H ) :   1.0045 B( 13-C , 16-H ) :   1.0045
B( 17-C , 19-C ) :   1.3625 B( 17-C , 20-H ) :   0.9696 B( 18-C , 21-C ) :   1.3625
B( 18-C , 22-H ) :   0.9696 B( 19-C , 21-C ) :   1.3395 B( 19-C , 23-H ) :   0.9883
B( 21-C , 24-H ) :   0.9883

FINAL SINGLE POINT ENERGY     -3686.894563607701

DIPOLE MOMENT
-------------
                                X             Y             Z
Electronic contribution:      0.00000       0.00000      -0.33936
Nuclear contribution   :     -0.00000      -0.00000      -0.00000
                        -----------------------------------------
Total Dipole Moment    :      0.00000       0.00000      -0.33936
                        -----------------------------------------
Magnitude (a.u.)       :      0.33936
Magnitude (Debye)      :      0.86259

Rotational constants in cm-1:     0.033390     0.004803     0.004200
Rotational constants in MHz :  1001.006956   143.997933   125.919615

                             ****ORCA TERMINATED NORMALLY****
TOTAL RUN TIME: 0 days 6 hours 19 minutes 40 seconds 334 msec
