                         Program Version 5.0.4 -  RELEASE  -
|  1> ! RIJCOSX nofrozencore ReducedPop printbasis
|  2> ! M06L ano-rcc-dzp autoaux
|  3>
|  4> %maxcore 5000
|  5> %basis
|  6> PCDTrimBas overlap
|  7> PCDTrimAuxJ Coulomb
|  8> PCDTrimAuxJK Coulomb
|  9> PCDTrimAuxC Coulomb
| 10> PCDThresh -1
| 11> end
| 12>
| 13> %basis
| 14> newgto Cu "ano-rcc-tzp" end
| 15> newgto S "ano-rcc-tzp" end
| 16> end
| 17>
| 18> %pal
| 19> nprocs 12
| 20> end
| 21>
| 22> % sym SymThresh 1e-2 end
| 23> * xyz -2 2
| 24> Cu -5.488376060510721e-06 -8.415513671317871e-06 -1.1491599447695467e-05
| 25> S -0.7783106819703839 -1.7052436931852777 -1.3658698899092223
| 26> C -0.6759078529080801 -3.081714656255865 -0.36120774301775843
| 27> S -0.3008945249806962 1.5700755003108302 -1.6768776720710241
| 28> C 0.21440766317814433 3.1068777977327313 -0.9827157236998403
| 29> S 0.3008993646467352 -1.569571786100767 1.6766320512815678
| 30> C -0.21491225949782483 -3.125217602567382 0.9907115029727496
| 31> S 0.7781435529923781 1.704659058051321 1.3656891728241025
| 32> C 0.6812679795782878 3.1007147176460848 0.3668749552289984
| 33> C 1.1007600977286451 4.403192500181725 0.9054769091019551
| 34> C 0.1740660753293562 4.244005923898246 -1.68505446458001
| 35> C 0.5580522267603926 5.457490893232852 -1.202990390317914
| 36> H -0.17668610349599614 4.269686971331606 -2.7098500465991724
| 37> C 1.0300276842218863 5.564848269064746 0.10285191669871166
| 38> H 1.4482765884008209 4.337238305039761 1.9416947390967256
| 39> H 0.5802704874978711 6.462172866284384 -1.6566546581692458
| 40> H 1.394514951513342 6.411469267203442 0.7177370991954478
| 41> C -1.1068508084906632 -4.415002701998733 -0.9169562488240379
| 42> C -0.17639925343705679 -4.230687477120256 1.6714622563951862
| 43> C -1.0273869663640847 -5.579384741725032 -0.08774508735591993
| 44> H -1.4487707999448394 -4.305272693032949 -1.9595928243010088
| 45> C -0.5507546522113 -5.442944054062644 1.21654003093516
| 46> H 0.16537899843707482 -4.312924968843113 2.6995223810167936
| 47> H -1.4168354164564776 -6.373520741511146 -0.8016647748602928
| 48> H -0.6165348774783506 -6.511737070434898 1.5776108177813333
| 49> *
| 50>
| 51> % eprnmr
| 52> gtensor true
| 53> Nuclei = all H {aiso,adip,aorb,fgrad,rho}
| 54> Nuclei = all Cu {aiso,adip,aorb,fgrad,rho}
| 55> end
| 56>
| 57>                          ****END OF INPUT****

CARTESIAN COORDINATES (ANGSTROEM)
---------------------------------
  Cu    -0.000009   -0.000013    0.000000
  S     -1.773204   -1.494982    0.000000
  C     -3.140245   -0.472385    0.000000
  S      1.543122   -1.728112    0.000000
  C      3.124795   -0.948709    0.000000
  S     -1.542618    1.727866    0.000000
  C     -3.143173    0.956631    0.000000
  S      1.772605    1.494773    0.000000
  C      3.159711    0.478937    0.000000
  C      4.498701    1.086900    0.000000
  C      4.258026   -1.658465    0.000000
  C      5.504927   -1.112923    0.000000
  H      4.252838   -2.741916    0.000000
  C      5.653779    0.271763    0.000000
  H      4.463344    2.181256    0.000000
  H      6.511257   -1.563467    0.000000
  H      6.532212    0.947083    0.000000
  C     -4.511044   -1.099391    0.000000
  C     -4.244917    1.644475    0.000000
  C     -5.668079   -0.256206    0.000000
  H     -4.431432   -2.199256    0.000000
  C     -5.489742    1.127684    0.000000
  H     -4.297058    2.729723    0.000000
  H     -6.496239   -1.034765    0.000000
  H     -6.563997    1.478389    0.000000

 Total Charge           Charge          ....   -2
 Multiplicity           Mult            ....    2
 Number of Electrons    NEL             ....  175
 Basis Dimension        Dim             ....  475

ORBITAL ENERGIES
----------------
                 SPIN UP ORBITALS
  NO   OCC          E(Eh)            E(eV)    Irrep
   0   1.0000    -318.182705     -8658.1916    1-A'
   1   1.0000     -88.020716     -2395.1654    2-A'
   2   1.0000     -88.018507     -2395.1053    3-A'
   3   1.0000     -88.012566     -2394.9437    4-A'
   4   1.0000     -88.011125     -2394.9045    5-A'
   5   1.0000     -38.027883     -1034.7913    6-A'
   6   1.0000     -33.531020      -912.4254    7-A'
   7   1.0000     -33.530177      -912.4025    8-A'
   8   1.0000     -33.516401      -912.0277    1-A"
   9   1.0000      -9.839609      -267.7494    9-A'
  10   1.0000      -9.837077      -267.6805   10-A'
  11   1.0000      -9.831743      -267.5353   11-A'
  12   1.0000      -9.828890      -267.4577   12-A'
  13   1.0000      -9.828648      -267.4511   13-A'
  14   1.0000      -9.827432      -267.4180   14-A'
  15   1.0000      -9.826652      -267.3968   15-A'
  16   1.0000      -9.825368      -267.3619   16-A'
  17   1.0000      -9.822150      -267.2743   17-A'
  18   1.0000      -9.819856      -267.2119   18-A'
  19   1.0000      -9.814029      -267.0533   19-A'
  20   1.0000      -9.812809      -267.0201   20-A'
  21   1.0000      -7.589764      -206.5280   21-A'
  22   1.0000      -7.587411      -206.4640   22-A'
  23   1.0000      -7.581098      -206.2922   23-A'
  24   1.0000      -7.579507      -206.2489   24-A'
  25   1.0000      -5.512729      -150.0090   25-A'
  26   1.0000      -5.510456      -149.9471   26-A'
  27   1.0000      -5.507565      -149.8685   27-A'
  28   1.0000      -5.506101      -149.8286    2-A"
  29   1.0000      -5.505271      -149.8060   28-A'
  30   1.0000      -5.504437      -149.7833   29-A'
  31   1.0000      -5.503647      -149.7619    3-A"
  32   1.0000      -5.502939      -149.7426   30-A'
  33   1.0000      -5.499051      -149.6368   31-A'
  34   1.0000      -5.497496      -149.5945   32-A'
  35   1.0000      -5.497029      -149.5818    4-A"
  36   1.0000      -5.495350      -149.5361    5-A"
  37   1.0000      -4.025485      -109.5390   33-A'
  38   1.0000      -2.546918       -69.3052   34-A'
  39   1.0000      -2.545392       -69.2636   35-A'
  40   1.0000      -2.517960       -68.5172    6-A"
  41   1.0000      -0.595060       -16.1924   36-A'
  42   1.0000      -0.592151       -16.1133   37-A'
  43   1.0000      -0.506264       -13.7762   38-A'
  44   1.0000      -0.504972       -13.7410   39-A'
  45   1.0000      -0.491292       -13.3687   40-A'
  46   1.0000      -0.490936       -13.3590   41-A'
  47   1.0000      -0.412259       -11.2181   42-A'
  48   1.0000      -0.409798       -11.1512   43-A'
  49   1.0000      -0.387558       -10.5460   44-A'
  50   1.0000      -0.381565       -10.3829   45-A'
  51   1.0000      -0.324891        -8.8407   46-A'
  52   1.0000      -0.321517        -8.7489   47-A'
  53   1.0000      -0.298828        -8.1315   48-A'
  54   1.0000      -0.295018        -8.0278   49-A'
  55   1.0000      -0.231186        -6.2909   50-A'
  56   1.0000      -0.225497        -6.1361   51-A'
  57   1.0000      -0.215210        -5.8562   52-A'
  58   1.0000      -0.205446        -5.5905   53-A'
  59   1.0000      -0.165327        -4.4988   54-A'
  60   1.0000      -0.160020        -4.3544   55-A'
  61   1.0000      -0.140807        -3.8315   56-A'
  62   1.0000      -0.132685        -3.6105   57-A'
  63   1.0000      -0.127191        -3.4610   58-A'
  64   1.0000      -0.121430        -3.3043    7-A"
  65   1.0000      -0.119115        -3.2413    8-A"
  66   1.0000      -0.108026        -2.9395   59-A'
  67   1.0000      -0.081612        -2.2208   60-A'
  68   1.0000      -0.067795        -1.8448   61-A'
  69   1.0000      -0.063141        -1.7182   62-A'
  70   1.0000      -0.055952        -1.5225   63-A'
  71   1.0000      -0.040889        -1.1126    9-A"
  72   1.0000      -0.039007        -1.0614   10-A"
  73   1.0000      -0.038023        -1.0347   64-A'
  74   1.0000      -0.027306        -0.7430   11-A"
  75   1.0000      -0.022665        -0.6167   65-A'
  76   1.0000      -0.020563        -0.5595   12-A"
  77   1.0000      -0.004479        -0.1219   13-A"
  78   1.0000      -0.001150        -0.0313   66-A'
  79   1.0000       0.000693         0.0189   14-A"
  80   1.0000       0.017831         0.4852   67-A'
  81   1.0000       0.018839         0.5126   68-A'
  82   1.0000       0.034389         0.9358   69-A'
  83   1.0000       0.049181         1.3383   15-A"
  84   1.0000       0.051297         1.3959   16-A"
  85   1.0000       0.062173         1.6918   17-A"
  86   1.0000       0.086912         2.3650   18-A"
  87   1.0000       0.103818         2.8250   70-A'
  88   0.0000       0.181145         4.9292   71-A'
  89   0.0000       0.181288         4.9331   72-A'
  90   0.0000       0.196483         5.3466   73-A'
  91   0.0000       0.196675         5.3518   74-A'
  92   0.0000       0.197571         5.3762   19-A"

                 SPIN DOWN ORBITALS
  NO   OCC          E(Eh)            E(eV)    Irrep
   0   1.0000    -318.182530     -8658.1868    1-A'
   1   1.0000     -88.019656     -2395.1366    2-A'
   2   1.0000     -88.017438     -2395.0762    3-A'
   3   1.0000     -88.011499     -2394.9146    4-A'
   4   1.0000     -88.010051     -2394.8753    5-A'
   5   1.0000     -38.012018     -1034.3596    6-A'
   6   1.0000     -33.515864      -912.0130    7-A'
   7   1.0000     -33.515053      -911.9909    8-A'
   8   1.0000     -33.512078      -911.9100    1-A"
   9   1.0000      -9.839725      -267.7525    9-A'
  10   1.0000      -9.837194      -267.6837   10-A'
  11   1.0000      -9.831708      -267.5344   11-A'
  12   1.0000      -9.828999      -267.4607   12-A'
  13   1.0000      -9.828633      -267.4507   13-A'
  14   1.0000      -9.827402      -267.4172   14-A'
  15   1.0000      -9.826760      -267.3997   15-A'
  16   1.0000      -9.825351      -267.3614   16-A'
  17   1.0000      -9.822069      -267.2721   17-A'
  18   1.0000      -9.819782      -267.2099   18-A'
  19   1.0000      -9.813981      -267.0520   19-A'
  20   1.0000      -9.812765      -267.0189   20-A'
  21   1.0000      -7.589036      -206.5082   21-A'
  22   1.0000      -7.586678      -206.4440   22-A'
  23   1.0000      -7.580367      -206.2723   23-A'
  24   1.0000      -7.578772      -206.2289   24-A'
  25   1.0000      -5.511803      -149.9838   25-A'
  26   1.0000      -5.509524      -149.9218   26-A'
  27   1.0000      -5.505346      -149.8081   27-A'
  28   1.0000      -5.505286      -149.8064    2-A"
  29   1.0000      -5.503508      -149.7581   28-A'
  30   1.0000      -5.503031      -149.7451   29-A'
  31   1.0000      -5.502829      -149.7396    3-A"
  32   1.0000      -5.502006      -149.7172   30-A'
  33   1.0000      -5.496810      -149.5758   31-A'
  34   1.0000      -5.496219      -149.5597    4-A"
  35   1.0000      -5.495241      -149.5331   32-A'
  36   1.0000      -5.494539      -149.5140    5-A"
  37   1.0000      -3.991758      -108.6213   33-A'
  38   1.0000      -2.506254       -68.1986    6-A"
  39   1.0000      -2.504909       -68.1620   34-A'
  40   1.0000      -2.503276       -68.1176   35-A'
  41   1.0000      -0.594723       -16.1832   36-A'
  42   1.0000      -0.591804       -16.1038   37-A'
  43   1.0000      -0.504902       -13.7391   38-A'
  44   1.0000      -0.503686       -13.7060   39-A'
  45   1.0000      -0.490172       -13.3382   40-A'
  46   1.0000      -0.489868       -13.3300   41-A'
  47   1.0000      -0.408555       -11.1174   42-A'
  48   1.0000      -0.405998       -11.0478   43-A'
  49   1.0000      -0.384172       -10.4538   44-A'
  50   1.0000      -0.378341       -10.2952   45-A'
  51   1.0000      -0.323603        -8.8057   46-A'
  52   1.0000      -0.319959        -8.7065   47-A'
  53   1.0000      -0.297004        -8.0819   48-A'
  54   1.0000      -0.292768        -7.9666   49-A'
  55   1.0000      -0.230555        -6.2737   50-A'
  56   1.0000      -0.224772        -6.1164   51-A'
  57   1.0000      -0.214473        -5.8361   52-A'
  58   1.0000      -0.204651        -5.5688   53-A'
  59   1.0000      -0.164660        -4.4806   54-A'
  60   1.0000      -0.159366        -4.3366   55-A'
  61   1.0000      -0.139657        -3.8002   56-A'
  62   1.0000      -0.130191        -3.5427   57-A'
  63   1.0000      -0.125706        -3.4206   58-A'
  64   1.0000      -0.121282        -3.3003    7-A"
  65   1.0000      -0.118947        -3.2367    8-A"
  66   1.0000      -0.107055        -2.9131   59-A'
  67   1.0000      -0.080384        -2.1874   60-A'
  68   1.0000      -0.066201        -1.8014   61-A'
  69   1.0000      -0.055049        -1.4980   62-A'
  70   1.0000      -0.049923        -1.3585   63-A'
  71   1.0000      -0.038867        -1.0576    9-A"
  72   1.0000      -0.037943        -1.0325   10-A"
  73   1.0000      -0.024324        -0.6619   11-A"
  74   1.0000      -0.019990        -0.5439   64-A'
  75   1.0000      -0.019779        -0.5382   12-A"
  76   1.0000      -0.003555        -0.0967   65-A'
  77   1.0000       0.005420         0.1475   13-A"
  78   1.0000       0.009816         0.2671   66-A'
  79   1.0000       0.012849         0.3497   14-A"
  80   1.0000       0.025404         0.6913   67-A'
  81   1.0000       0.033172         0.9027   68-A'
  82   1.0000       0.042630         1.1600   69-A'
  83   1.0000       0.052000         1.4150   15-A"
  84   1.0000       0.056816         1.5460   16-A"
  85   1.0000       0.063982         1.7410   17-A"
  86   1.0000       0.091021         2.4768   18-A"
  87   0.0000       0.136779         3.7219   70-A'
  88   0.0000       0.182165         4.9570   71-A'
  89   0.0000       0.182307         4.9608   72-A'
  90   0.0000       0.197697         5.3796   19-A"
  91   0.0000       0.198218         5.3938   73-A'

MULLIKEN ATOMIC CHARGES AND SPIN POPULATIONS
--------------------------------------------
   0 Cu:    0.140077    0.375399
   1 S :   -0.379356    0.159599
   2 C :    0.032858   -0.008029
   3 S :   -0.453449    0.163506
   4 C :    0.004415   -0.007212
   5 S :   -0.466003    0.165248
   6 C :   -0.005398   -0.007540
   7 S :   -0.393142    0.161876
   8 C :    0.034278   -0.007917
   9 C :   -0.098310   -0.001311
  10 C :   -0.075500   -0.001335
  11 C :   -0.153826   -0.001183
  12 H :    0.058055    0.001672
  13 C :   -0.114587   -0.000540
  14 H :    0.071732    0.002474
  15 H :    0.023720    0.000859
  16 H :    0.027350    0.001470
  17 C :   -0.106434   -0.001056
  18 C :   -0.054577   -0.000960
  19 C :   -0.097500   -0.000316
  20 H :    0.074935    0.002614
  21 C :   -0.149735   -0.001280
  22 H :    0.050558    0.001412
  23 H :    0.019274    0.001765
  24 H :    0.010566    0.000785
Sum of atomic charges         :   -2.0000000

LOEWDIN ATOMIC CHARGES AND SPIN POPULATIONS
-------------------------------------------
   0 Cu:   -0.891970    0.442012
   1 S :    0.030381    0.121593
   2 C :   -0.018973    0.005121
   3 S :   -0.001062    0.124490
   4 C :   -0.048102    0.005082
   5 S :   -0.005516    0.125870
   6 C :   -0.053975    0.005007
   7 S :    0.023786    0.123229
   8 C :   -0.025453    0.005231
   9 C :    0.326200    0.004219
  10 C :    0.276522    0.003648
  11 C :    0.300430   -0.000406
  12 H :   -0.437921    0.005795
  13 C :    0.308521    0.000199
  14 H :   -0.454971    0.007042
  15 H :   -0.411263    0.000116
  16 H :   -0.409420    0.000375
  17 C :    0.333561    0.004382
  18 C :    0.255181    0.003598
  19 C :    0.302086    0.000424
  20 H :   -0.458070    0.007340
  21 C :    0.290193   -0.000521
  22 H :   -0.430786    0.005508
  23 H :   -0.398545    0.000527
  24 H :   -0.400834    0.000118

  Mayer bond orders larger than 0.100000
B(  0-Cu,  1-S ) :   0.6882 B(  0-Cu,  3-S ) :   0.7077 B(  0-Cu,  5-S ) :   0.7126
B(  0-Cu,  7-S ) :   0.6951 B(  1-S ,  2-C ) :   1.2407 B(  2-C ,  6-C ) :   1.2365
B(  2-C , 17-C ) :   1.2870 B(  3-S ,  4-C ) :   1.1558 B(  4-C ,  8-C ) :   1.2408
B(  4-C , 10-C ) :   1.3378 B(  5-S ,  6-C ) :   1.1397 B(  6-C , 18-C ) :   1.3510
B(  7-S ,  8-C ) :   1.2205 B(  8-C ,  9-C ) :   1.2970 B(  9-C , 13-C ) :   1.3711
B(  9-C , 14-H ) :   0.9597 B( 10-C , 11-C ) :   1.3524 B( 10-C , 12-H ) :   0.9745
B( 11-C , 13-C ) :   1.3364 B( 11-C , 15-H ) :   0.9893 B( 13-C , 16-H ) :   0.9792
B( 17-C , 19-C ) :   1.3706 B( 17-C , 20-H ) :   0.9531 B( 18-C , 21-C ) :   1.3405
B( 18-C , 22-H ) :   0.9766 B( 19-C , 21-C ) :   1.3324 B( 19-C , 23-H ) :   0.9717
B( 21-C , 24-H ) :   0.9878

FINAL SINGLE POINT ENERGY     -3686.851166821188

DIPOLE MOMENT
-------------
                                X             Y             Z
Electronic contribution:      0.09367       0.13673       0.00000
Nuclear contribution   :     -0.02723      -0.19033       0.00000
                        -----------------------------------------
Total Dipole Moment    :      0.06645      -0.05359       0.00000
                        -----------------------------------------
Magnitude (a.u.)       :      0.08536
Magnitude (Debye)      :      0.21698

Rotational constants in cm-1:     0.033403     0.004804     0.004200
Rotational constants in MHz :  1001.393757   144.017452   125.909522

                             ****ORCA TERMINATED NORMALLY****
TOTAL RUN TIME: 0 days 6 hours 54 minutes 45 seconds 447 msec
