                         Program Version 5.0.4 -  RELEASE  -
|  1> ! RIJCOSX nofrozencore ReducedPop printbasis
|  2> ! M06L ano-rcc-dzp autoaux
|  3>
|  4> %maxcore 5000
|  5> %basis
|  6> PCDTrimBas overlap
|  7> PCDTrimAuxJ Coulomb
|  8> PCDTrimAuxJK Coulomb
|  9> PCDTrimAuxC Coulomb
| 10> PCDThresh -1
| 11> end
| 12>
| 13> %basis
| 14> newgto Cu "ano-rcc-tzp" end
| 15> newgto S "ano-rcc-tzp" end
| 16> end
| 17>
| 18> %pal
| 19> nprocs 12
| 20> end
| 21>
| 22> % sym SymThresh 1e-2 end
| 23> * xyz -2 2
| 24> Cu -1.4952910930071446e-05 -8.402591313240228e-06 -1.2562122190936122e-05
| 25> S -1.5358013109442104 -0.8493343834805027 -1.5098243585132145
| 26> C -0.9229208294890323 -0.37333869871108283 -3.105811258754304
| 27> S -1.201515377580844 -0.849533231737807 1.787395523949548
| 28> C -0.29203150437045233 -0.3802371516318521 3.2215835704972835
| 29> S 1.2017376366058474 0.8496640231075726 -1.7873033743787443
| 30> C 0.2898672532059111 0.3788990254463951 -3.2214455697415767
| 31> S 1.536088736448959 0.8495457186475446 1.5092666811634938
| 32> C 0.9208673330591789 0.37192011762437194 3.108331175838853
| 33> C 1.5720384542642216 0.6987785467911449 4.281912375156224
| 34> C -0.6697540222275016 -0.6924368054751046 4.50740988389147
| 35> C 0.02028260064061089 -0.33414444285951217 5.559749078266605
| 36> H -1.5637765510555546 -1.260808043974129 4.814804320568482
| 37> C 1.0857554381703174 0.32758688517261725 5.444259806265998
| 38> H 2.50828132554078 1.2668340548554216 4.395618756743464
| 39> H -0.2861154648378415 -0.5850833500770688 6.565740890167935
| 40> H 1.5768192730490949 0.5709954206631578 6.378743454153696
| 41> C -1.570395863300947 -0.6978078368984538 -4.2812971920683545
| 42> C 0.6739450770153874 0.6949989347714721 -4.507209678412936
| 43> C -1.088623265865022 -0.329184893245118 -5.446886131553107
| 44> H -2.5064404015622297 -1.2659466556684318 -4.391712858179993
| 45> C -0.020165454326813912 0.3342449017574707 -5.560206150198563
| 46> H 1.5687921797179694 1.2633918546309582 -4.806826604315668
| 47> H -1.5838192555482542 -0.5753514043863611 -6.377848090643913
| 48> H 0.28453332535885884 0.5842248452529945 -6.56756022799695
| 49> *
| 50>
| 51> % eprnmr
| 52> gtensor true
| 53> Nuclei = all H {aiso,adip,aorb,fgrad,rho}
| 54> Nuclei = all Cu {aiso,adip,aorb,fgrad,rho}
| 55> end
| 56>
| 57>                          ****END OF INPUT****

CARTESIAN COORDINATES (ANGSTROEM)
---------------------------------
  Cu    -0.000015   -0.000008   -0.000013
  S     -1.535801   -0.849334   -1.509824
  C     -0.922921   -0.373339   -3.105811
  S     -1.201515   -0.849533    1.787396
  C     -0.292032   -0.380237    3.221584
  S      1.201738    0.849664   -1.787303
  C      0.289867    0.378899   -3.221446
  S      1.536089    0.849546    1.509267
  C      0.920867    0.371920    3.108331
  C      1.572038    0.698779    4.281912
  C     -0.669754   -0.692437    4.507410
  C      0.020283   -0.334144    5.559749
  H     -1.563777   -1.260808    4.814804
  C      1.085755    0.327587    5.444260
  H      2.508281    1.266834    4.395619
  H     -0.286116   -0.585083    6.565741
  H      1.576819    0.570995    6.378743
  C     -1.570396   -0.697808   -4.281297
  C      0.673945    0.694999   -4.507210
  C     -1.088623   -0.329185   -5.446886
  H     -2.506440   -1.265947   -4.391713
  C     -0.020166    0.334245   -5.560206
  H      1.568792    1.263392   -4.806827
  H     -1.583819   -0.575351   -6.377848
  H      0.284533    0.584225   -6.567560

 Total Charge           Charge          ....   -2
 Multiplicity           Mult            ....    2
 Number of Electrons    NEL             ....  175
 Basis Dimension        Dim             ....  475

ORBITAL ENERGIES
----------------
                 SPIN UP ORBITALS
  NO   OCC          E(Eh)            E(eV)
   0   1.0000    -318.177743     -8658.0566
   1   1.0000     -88.012301     -2394.9365
   2   1.0000     -88.012190     -2394.9334
   3   1.0000     -88.011851     -2394.9242
   4   1.0000     -88.011800     -2394.9228
   5   1.0000     -38.023082     -1034.6607
   6   1.0000     -33.526239      -912.2954
   7   1.0000     -33.525364      -912.2715
   8   1.0000     -33.511535      -911.8952
   9   1.0000      -9.832604      -267.5587
  10   1.0000      -9.832353      -267.5519
  11   1.0000      -9.831845      -267.5381
  12   1.0000      -9.831735      -267.5351
  13   1.0000      -9.806274      -266.8423
  14   1.0000      -9.806026      -266.8355
  15   1.0000      -9.805225      -266.8137
  16   1.0000      -9.804710      -266.7997
  17   1.0000      -9.795241      -266.5421
  18   1.0000      -9.794694      -266.5272
  19   1.0000      -9.793861      -266.5045
  20   1.0000      -9.793203      -266.4866
  21   1.0000      -7.580487      -206.2755
  22   1.0000      -7.580354      -206.2719
  23   1.0000      -7.579823      -206.2575
  24   1.0000      -7.579705      -206.2543
  25   1.0000      -5.503953      -149.7702
  26   1.0000      -5.503812      -149.7663
  27   1.0000      -5.503282      -149.7519
  28   1.0000      -5.503174      -149.7490
  29   1.0000      -5.498358      -149.6179
  30   1.0000      -5.498238      -149.6147
  31   1.0000      -5.497764      -149.6018
  32   1.0000      -5.497663      -149.5990
  33   1.0000      -5.496439      -149.5657
  34   1.0000      -5.496312      -149.5622
  35   1.0000      -5.495768      -149.5475
  36   1.0000      -5.495646      -149.5441
  37   1.0000      -4.020751      -109.4102
  38   1.0000      -2.542299       -69.1795
  39   1.0000      -2.540635       -69.1342
  40   1.0000      -2.513133       -68.3858
  41   1.0000      -0.617738       -16.8095
  42   1.0000      -0.616717       -16.7817
  43   1.0000      -0.512636       -13.9495
  44   1.0000      -0.511690       -13.9238
  45   1.0000      -0.496359       -13.5066
  46   1.0000      -0.496003       -13.4969
  47   1.0000      -0.408536       -11.1168
  48   1.0000      -0.405772       -11.0416
  49   1.0000      -0.395028       -10.7492
  50   1.0000      -0.389009       -10.5855
  51   1.0000      -0.327906        -8.9228
  52   1.0000      -0.324535        -8.8310
  53   1.0000      -0.295772        -8.0484
  54   1.0000      -0.291729        -7.9383
  55   1.0000      -0.249756        -6.7962
  56   1.0000      -0.244696        -6.6585
  57   1.0000      -0.198921        -5.4129
  58   1.0000      -0.198361        -5.3977
  59   1.0000      -0.168050        -4.5729
  60   1.0000      -0.166690        -4.5359
  61   1.0000      -0.140623        -3.8266
  62   1.0000      -0.136513        -3.7147
  63   1.0000      -0.134911        -3.6711
  64   1.0000      -0.134185        -3.6514
  65   1.0000      -0.128792        -3.5046
  66   1.0000      -0.108335        -2.9479
  67   1.0000      -0.078416        -2.1338
  68   1.0000      -0.066905        -1.8206
  69   1.0000      -0.062876        -1.7110
  70   1.0000      -0.054898        -1.4938
  71   1.0000      -0.043271        -1.1775
  72   1.0000      -0.042413        -1.1541
  73   1.0000      -0.026713        -0.7269
  74   1.0000      -0.025998        -0.7075
  75   1.0000      -0.025582        -0.6961
  76   1.0000      -0.020951        -0.5701
  77   1.0000      -0.002389        -0.0650
  78   1.0000       0.003131         0.0852
  79   1.0000       0.003379         0.0920
  80   1.0000       0.021805         0.5933
  81   1.0000       0.022155         0.6029
  82   1.0000       0.039170         1.0659
  83   1.0000       0.052786         1.4364
  84   1.0000       0.055177         1.5015
  85   1.0000       0.062209         1.6928
  86   1.0000       0.088431         2.4063
  87   1.0000       0.108813         2.9609
  88   0.0000       0.177524         4.8307
  89   0.0000       0.177716         4.8359
  90   0.0000       0.195907         5.3309
  91   0.0000       0.196109         5.3364
  92   0.0000       0.210933         5.7398

                 SPIN DOWN ORBITALS
  NO   OCC          E(Eh)            E(eV)
   0   1.0000    -318.177568     -8658.0518
   1   1.0000     -88.011236     -2394.9075
   2   1.0000     -88.011121     -2394.9044
   3   1.0000     -88.010783     -2394.8952
   4   1.0000     -88.010727     -2394.8936
   5   1.0000     -38.007226     -1034.2292
   6   1.0000     -33.511089      -911.8831
   7   1.0000     -33.510245      -911.8601
   8   1.0000     -33.507218      -911.7777
   9   1.0000      -9.832717      -267.5618
  10   1.0000      -9.832467      -267.5550
  11   1.0000      -9.831960      -267.5412
  12   1.0000      -9.831852      -267.5383
  13   1.0000      -9.806231      -266.8411
  14   1.0000      -9.805982      -266.8343
  15   1.0000      -9.805176      -266.8124
  16   1.0000      -9.804661      -266.7984
  17   1.0000      -9.795223      -266.5416
  18   1.0000      -9.794676      -266.5267
  19   1.0000      -9.793843      -266.5040
  20   1.0000      -9.793185      -266.4861
  21   1.0000      -7.579759      -206.2557
  22   1.0000      -7.579623      -206.2520
  23   1.0000      -7.579096      -206.2377
  24   1.0000      -7.578974      -206.2344
  25   1.0000      -5.503040      -149.7453
  26   1.0000      -5.502894      -149.7414
  27   1.0000      -5.502365      -149.7270
  28   1.0000      -5.502253      -149.7239
  29   1.0000      -5.496116      -149.5569
  30   1.0000      -5.495988      -149.5534
  31   1.0000      -5.495631      -149.5437
  32   1.0000      -5.495521      -149.5407
  33   1.0000      -5.495501      -149.5402
  34   1.0000      -5.495407      -149.5376
  35   1.0000      -5.494960      -149.5255
  36   1.0000      -5.494834      -149.5220
  37   1.0000      -3.987093      -108.4943
  38   1.0000      -2.501437       -68.0676
  39   1.0000      -2.500328       -68.0374
  40   1.0000      -2.498639       -67.9914
  41   1.0000      -0.617577       -16.8051
  42   1.0000      -0.616554       -16.7773
  43   1.0000      -0.511430       -13.9167
  44   1.0000      -0.510545       -13.8926
  45   1.0000      -0.495746       -13.4899
  46   1.0000      -0.495385       -13.4801
  47   1.0000      -0.404227       -10.9996
  48   1.0000      -0.401397       -10.9226
  49   1.0000      -0.391793       -10.6612
  50   1.0000      -0.385921       -10.5014
  51   1.0000      -0.326610        -8.8875
  52   1.0000      -0.322915        -8.7870
  53   1.0000      -0.293759        -7.9936
  54   1.0000      -0.289199        -7.8695
  55   1.0000      -0.249149        -6.7797
  56   1.0000      -0.243878        -6.6363
  57   1.0000      -0.197916        -5.3856
  58   1.0000      -0.197391        -5.3713
  59   1.0000      -0.167786        -4.5657
  60   1.0000      -0.166293        -4.5251
  61   1.0000      -0.139847        -3.8054
  62   1.0000      -0.134899        -3.6708
  63   1.0000      -0.134752        -3.6668
  64   1.0000      -0.134170        -3.6509
  65   1.0000      -0.127359        -3.4656
  66   1.0000      -0.107374        -2.9218
  67   1.0000      -0.076989        -2.0950
  68   1.0000      -0.065474        -1.7816
  69   1.0000      -0.053275        -1.4497
  70   1.0000      -0.048042        -1.3073
  71   1.0000      -0.041609        -1.1322
  72   1.0000      -0.041421        -1.1271
  73   1.0000      -0.023510        -0.6397
  74   1.0000      -0.020416        -0.5555
  75   1.0000      -0.019139        -0.5208
  76   1.0000       0.001716         0.0467
  77   1.0000       0.007899         0.2150
  78   1.0000       0.013953         0.3797
  79   1.0000       0.015857         0.4315
  80   1.0000       0.028636         0.7792
  81   1.0000       0.037754         1.0273
  82   1.0000       0.047479         1.2920
  83   1.0000       0.055872         1.5204
  84   1.0000       0.061172         1.6646
  85   1.0000       0.064164         1.7460
  86   1.0000       0.092840         2.5263
  87   0.0000       0.141798         3.8585
  88   0.0000       0.178818         4.8659
  89   0.0000       0.179003         4.8709
  90   0.0000       0.198192         5.3931
  91   0.0000       0.198433         5.3996

MULLIKEN ATOMIC CHARGES AND SPIN POPULATIONS
--------------------------------------------
   0 Cu:    0.156936    0.375656
   1 S :   -0.446601    0.163901
   2 C :   -0.016383   -0.007966
   3 S :   -0.445692    0.162618
   4 C :   -0.023974   -0.007928
   5 S :   -0.444349    0.163306
   6 C :   -0.021217   -0.007964
   7 S :   -0.446722    0.164902
   8 C :   -0.015447   -0.008073
   9 C :   -0.110632   -0.000512
  10 C :   -0.091733   -0.000263
  11 C :   -0.010402   -0.000722
  12 H :    0.023622    0.000342
  13 C :   -0.002390   -0.000707
  14 H :    0.021734    0.000467
  15 H :    0.010240    0.001081
  16 H :    0.012912    0.001093
  17 C :   -0.106499   -0.000516
  18 C :   -0.095981   -0.000346
  19 C :   -0.006670   -0.000726
  20 H :    0.023327    0.000485
  21 C :   -0.013326   -0.000713
  22 H :    0.024920    0.000413
  23 H :    0.013159    0.001084
  24 H :    0.011167    0.001088
Sum of atomic charges         :   -2.0000000

LOEWDIN ATOMIC CHARGES AND SPIN POPULATIONS
-------------------------------------------
   0 Cu:   -0.922089    0.441072
   1 S :   -0.010742    0.126648
   2 C :   -0.020748    0.005132
   3 S :   -0.005848    0.126057
   4 C :   -0.029040    0.005583
   5 S :   -0.006620    0.126531
   6 C :   -0.027487    0.005520
   7 S :   -0.012163    0.127483
   8 C :   -0.018289    0.005034
   9 C :    0.292894    0.003430
  10 C :    0.288693    0.003477
  11 C :    0.259109   -0.000119
  12 H :   -0.402085    0.004087
  13 C :    0.258337   -0.000117
  14 H :   -0.400527    0.004241
  15 H :   -0.382469    0.000206
  16 H :   -0.387162    0.000221
  17 C :    0.292298    0.003423
  18 C :    0.290358    0.003499
  19 C :    0.259784   -0.000127
  20 H :   -0.402082    0.004237
  21 C :    0.260753   -0.000113
  22 H :   -0.403522    0.004167
  23 H :   -0.387216    0.000214
  24 H :   -0.384135    0.000213

  Mayer bond orders larger than 0.100000
B(  0-Cu,  1-S ) :   0.7015 B(  0-Cu,  3-S ) :   0.6986 B(  0-Cu,  5-S ) :   0.6992
B(  0-Cu,  7-S ) :   0.7023 B(  1-S ,  2-C ) :   1.1683 B(  2-C ,  6-C ) :   1.2562
B(  2-C , 17-C ) :   1.3388 B(  3-S ,  4-C ) :   1.1797 B(  4-C ,  8-C ) :   1.2567
B(  4-C , 10-C ) :   1.3363 B(  5-S ,  6-C ) :   1.1781 B(  6-C , 18-C ) :   1.3363
B(  7-S ,  8-C ) :   1.1655 B(  8-C ,  9-C ) :   1.3401 B(  9-C , 13-C ) :   1.3312
B(  9-C , 14-H ) :   0.9951 B( 10-C , 11-C ) :   1.3280 B( 10-C , 12-H ) :   0.9915
B( 11-C , 13-C ) :   1.3192 B( 11-C , 15-H ) :   0.9848 B( 13-C , 16-H ) :   0.9823
B( 17-C , 19-C ) :   1.3314 B( 17-C , 20-H ) :   0.9939 B( 18-C , 21-C ) :   1.3303
B( 18-C , 22-H ) :   0.9914 B( 19-C , 21-C ) :   1.3199 B( 19-C , 23-H ) :   0.9828
B( 21-C , 24-H ) :   0.9847

FINAL SINGLE POINT ENERGY     -3686.840773422125

DIPOLE MOMENT
-------------
                                X             Y             Z
Electronic contribution:      0.00090       0.00073      -0.00281
Nuclear contribution   :     -0.00156      -0.00160       0.01036
                        -----------------------------------------
Total Dipole Moment    :     -0.00065      -0.00087       0.00755
                        -----------------------------------------
Magnitude (a.u.)       :      0.00763
Magnitude (Debye)      :      0.01939

Rotational constants in cm-1:     0.034293     0.004814     0.004221
Rotational constants in MHz :  1028.076457   144.319027   126.553706

                             ****ORCA TERMINATED NORMALLY****
TOTAL RUN TIME: 0 days 6 hours 42 minutes 21 seconds 668 msec
