                         Program Version 5.0.4 -  RELEASE  -
|  1> ! RIJCOSX nofrozencore ReducedPop printbasis
|  2> ! M06L ano-rcc-dzp autoaux
|  3>
|  4> %maxcore 5000
|  5> %basis
|  6> PCDTrimBas overlap
|  7> PCDTrimAuxJ Coulomb
|  8> PCDTrimAuxJK Coulomb
|  9> PCDTrimAuxC Coulomb
| 10> PCDThresh -1
| 11> end
| 12>
| 13> %basis
| 14> newgto Cu "ano-rcc-tzp" end
| 15> newgto S "ano-rcc-tzp" end
| 16> end
| 17>
| 18> %pal
| 19> nprocs 8
| 20> end
| 21>
| 22> % sym SymThresh 1e-2 end
| 23> * xyz -2 2
| 24> Cu -4.731042543431633e-05 -2.8993466852562195e-05 -0.0001296383528323828
| 25> S -2.0644353229261214 -0.23546060227145876 -1.028109101293673
| 26> C -1.6835529947276822 -0.600526752614301 -2.674786677755438
| 27> S -0.9959651948839149 0.4512141098672932 2.0429811854546074
| 28> C 0.3461337760374382 0.7026304971498615 3.1534368636906307
| 29> S 0.9928063222789434 -0.4518114903071957 -2.0456201364726416
| 30> C -0.3377883793692232 -0.6957311567789195 -3.122545049274899
| 31> S 2.0652565224865875 0.23456482231407907 1.0240702383905964
| 32> C 1.6969200476388617 0.6073271663956084 2.70515995373734
| 33> C 2.7161035011456494 0.814156076354842 3.6199300235734992
| 34> C 0.10991565735450332 0.9986262766859705 4.487496214871345
| 35> C 1.1236697417495631 1.201388668808625 5.384065947108069
| 36> H -0.8892404191600337 1.089299326263309 4.9097885519903395
| 37> C 2.4737398872628313 1.1057892052187301 4.934468364307507
| 38> H 3.771722202935648 0.759724727927934 3.359724369577227
| 39> H 0.6555113046046576 1.4194022666111763 6.370983252175331
| 40> H 3.4632197673952505 1.2202564738949855 5.434483032312289
| 41> C -2.7176538903416074 -0.8131947025821782 -3.615585576104569
| 42> C -0.10635264435122241 -0.9980056577282234 -4.484758742232626
| 43> C -2.452875108484572 -1.1121063975544447 -4.963172742083866
| 44> H -3.7180042494908103 -0.7230853432623807 -3.1958096289160287
| 45> C -1.1580857066553067 -1.2037346642070383 -5.394105842635279
| 46> H 0.9481407376324571 -1.053398032193261 -4.749267938756577
| 47> H -3.1561991979588777 -1.2987738905495334 -5.791955621461249
| 48> H -1.1191235856060797 -1.442969381670089 -6.470107578419994
| 49> *
| 50>
| 51> % eprnmr
| 52> gtensor true
| 53> Nuclei = all H {aiso,adip,aorb,fgrad,rho}
| 54> Nuclei = all Cu {aiso,adip,aorb,fgrad,rho}
| 55> end
| 56>
| 57>                          ****END OF INPUT****

CARTESIAN COORDINATES (ANGSTROEM)
---------------------------------
  Cu     0.000000    0.000000   -0.000141
  S     -1.614687    0.000000   -1.663471
  C     -0.710745    0.000000   -3.137481
  S     -1.616802    0.000000    1.659856
  C     -0.713207    0.000000    3.170695
  S      1.614687    0.000000   -1.663471
  C      0.710745    0.000000   -3.137481
  S      1.616802    0.000000    1.659856
  C      0.713207    0.000000    3.170695
  C      1.376492    0.000000    4.387566
  C     -1.376492    0.000000    4.387566
  C     -0.713086    0.000000    5.584277
  H     -2.461498    0.000000    4.475278
  C      0.713086    0.000000    5.584277
  H      2.461498    0.000000    4.475278
  H     -1.483233    0.000000    6.389460
  H      1.483233    0.000000    6.389460
  C     -1.379177    0.000000   -4.383806
  C      1.379177    0.000000   -4.383806
  C     -0.683845    0.000000   -5.605251
  H     -2.464511    0.000000   -4.299776
  C      0.683845    0.000000   -5.605251
  H      2.464511    0.000000   -4.299776
  H     -1.075914    0.000000   -6.636146
  H      1.075914    0.000000   -6.636146

 Total Charge           Charge          ....   -2
 Multiplicity           Mult            ....    2
 Number of Electrons    NEL             ....  175
 Basis Dimension        Dim             ....  475

ORBITAL ENERGIES
----------------
                 SPIN UP ORBITALS
  NO   OCC          E(Eh)            E(eV)    Irrep
   0   1.0000    -318.181900     -8658.1697    1-A1
   1   1.0000     -88.015453     -2395.0222    1-B1
   2   1.0000     -88.015444     -2395.0220    2-A1
   3   1.0000     -88.014315     -2394.9913    2-B1
   4   1.0000     -88.014303     -2394.9909    3-A1
   5   1.0000     -38.027111     -1034.7703    4-A1
   6   1.0000     -33.530258      -912.4047    3-B1
   7   1.0000     -33.529405      -912.3815    5-A1
   8   1.0000     -33.515610      -912.0061    1-B2
   9   1.0000      -9.833640      -267.5870    6-A1
  10   1.0000      -9.833320      -267.5782    4-B1
  11   1.0000      -9.832673      -267.5606    7-A1
  12   1.0000      -9.832336      -267.5515    5-B1
  13   1.0000      -9.831710      -267.5344    8-A1
  14   1.0000      -9.831394      -267.5258    6-B1
  15   1.0000      -9.823077      -267.2995    9-A1
  16   1.0000      -9.822541      -267.2849    7-B1
  17   1.0000      -9.818564      -267.1767    8-B1
  18   1.0000      -9.818560      -267.1766   10-A1
  19   1.0000      -9.815953      -267.1057    9-B1
  20   1.0000      -9.815948      -267.1055   11-A1
  21   1.0000      -7.583738      -206.3640   10-B1
  22   1.0000      -7.583729      -206.3638   12-A1
  23   1.0000      -7.583349      -206.3534   11-B1
  24   1.0000      -7.583338      -206.3531   13-A1
  25   1.0000      -5.507046      -149.8543   12-B1
  26   1.0000      -5.507045      -149.8543   14-A1
  27   1.0000      -5.506477      -149.8389   13-B1
  28   1.0000      -5.506477      -149.8388   15-A1
  29   1.0000      -5.501655      -149.7076   14-B1
  30   1.0000      -5.501655      -149.7076   16-A1
  31   1.0000      -5.501225      -149.6959   15-B1
  32   1.0000      -5.501225      -149.6959   17-A1
  33   1.0000      -5.499795      -149.6570    1-A2
  34   1.0000      -5.499795      -149.6570    2-B2
  35   1.0000      -5.499426      -149.6470    2-A2
  36   1.0000      -5.499426      -149.6470    3-B2
  37   1.0000      -4.024717      -109.5181   18-A1
  38   1.0000      -2.546172       -69.2849   16-B1
  39   1.0000      -2.544621       -69.2427   19-A1
  40   1.0000      -2.517170       -68.4957    4-B2
  41   1.0000      -0.594991       -16.1905   20-A1
  42   1.0000      -0.587427       -15.9847   21-A1
  43   1.0000      -0.508813       -13.8455   22-A1
  44   1.0000      -0.500704       -13.6249   23-A1
  45   1.0000      -0.499698       -13.5975   17-B1
  46   1.0000      -0.485241       -13.2041   18-B1
  47   1.0000      -0.413362       -11.2482   19-B1
  48   1.0000      -0.404736       -11.0134   20-B1
  49   1.0000      -0.391369       -10.6497   24-A1
  50   1.0000      -0.377691       -10.2775   25-A1
  51   1.0000      -0.323577        -8.8050   26-A1
  52   1.0000      -0.320147        -8.7117   27-A1
  53   1.0000      -0.304884        -8.2963   21-B1
  54   1.0000      -0.289417        -7.8754   22-B1
  55   1.0000      -0.235546        -6.4095   28-A1
  56   1.0000      -0.229214        -6.2372   29-A1
  57   1.0000      -0.189894        -5.1673   30-A1
  58   1.0000      -0.184275        -5.0144   31-A1
  59   1.0000      -0.177982        -4.8431   23-B1
  60   1.0000      -0.171099        -4.6558   24-B1
  61   1.0000      -0.144138        -3.9222   25-B1
  62   1.0000      -0.140297        -3.8177   26-B1
  63   1.0000      -0.130287        -3.5453   32-A1
  64   1.0000      -0.120923        -3.2905    5-B2
  65   1.0000      -0.115486        -3.1425    6-B2
  66   1.0000      -0.113587        -3.0909   33-A1
  67   1.0000      -0.085375        -2.3232   34-A1
  68   1.0000      -0.069378        -1.8879   27-B1
  69   1.0000      -0.063656        -1.7322   28-B1
  70   1.0000      -0.061852        -1.6831   35-A1
  71   1.0000      -0.040725        -1.1082    7-B2
  72   1.0000      -0.036478        -0.9926    8-B2
  73   1.0000      -0.031283        -0.8513   29-B1
  74   1.0000      -0.029664        -0.8072   36-A1
  75   1.0000      -0.028681        -0.7805    3-A2
  76   1.0000      -0.020272        -0.5516    4-A2
  77   1.0000      -0.003320        -0.0903    5-A2
  78   1.0000      -0.001122        -0.0305   37-A1
  79   1.0000       0.000889         0.0242    9-B2
  80   1.0000       0.017860         0.4860   38-A1
  81   1.0000       0.018584         0.5057   39-A1
  82   1.0000       0.034338         0.9344   30-B1
  83   1.0000       0.048662         1.3242    6-A2
  84   1.0000       0.052674         1.4333    7-A2
  85   1.0000       0.062028         1.6879   10-B2
  86   1.0000       0.087103         2.3702   11-B2
  87   1.0000       0.104591         2.8461   31-B1
  88   0.0000       0.180642         4.9155   40-A1
  89   0.0000       0.181380         4.9356   41-A1
  90   0.0000       0.192693         5.2434   32-B1
  91   0.0000       0.198174         5.3926   12-B2
  92   0.0000       0.199977         5.4416   33-B1

                 SPIN DOWN ORBITALS
  NO   OCC          E(Eh)            E(eV)    Irrep
   0   1.0000    -318.181726     -8658.1649    1-A1
   1   1.0000     -88.014373     -2394.9928    1-B1
   2   1.0000     -88.014363     -2394.9926    2-A1
   3   1.0000     -88.013259     -2394.9625    2-B1
   4   1.0000     -88.013247     -2394.9622    3-A1
   5   1.0000     -38.011223     -1034.3380    4-A1
   6   1.0000     -33.515080      -911.9917    3-B1
   7   1.0000     -33.514260      -911.9694    5-A1
   8   1.0000     -33.511280      -911.8883    1-B2
   9   1.0000      -9.833758      -267.5902    6-A1
  10   1.0000      -9.833437      -267.5814    4-B1
  11   1.0000      -9.832785      -267.5637    7-A1
  12   1.0000      -9.832448      -267.5545    5-B1
  13   1.0000      -9.831690      -267.5339    8-A1
  14   1.0000      -9.831374      -267.5253    6-B1
  15   1.0000      -9.823053      -267.2989    9-A1
  16   1.0000      -9.822517      -267.2843    7-B1
  17   1.0000      -9.818502      -267.1750    8-B1
  18   1.0000      -9.818499      -267.1749   10-A1
  19   1.0000      -9.815900      -267.1042    9-B1
  20   1.0000      -9.815895      -267.1041   11-A1
  21   1.0000      -7.582996      -206.3438   10-B1
  22   1.0000      -7.582988      -206.3436   12-A1
  23   1.0000      -7.582624      -206.3337   11-B1
  24   1.0000      -7.582614      -206.3334   13-A1
  25   1.0000      -5.506110      -149.8289   12-B1
  26   1.0000      -5.506109      -149.8289   14-A1
  27   1.0000      -5.505556      -149.8138   13-B1
  28   1.0000      -5.505556      -149.8138   15-A1
  29   1.0000      -5.499382      -149.6458   14-B1
  30   1.0000      -5.499381      -149.6458   16-A1
  31   1.0000      -5.499009      -149.6356   15-B1
  32   1.0000      -5.499009      -149.6356   17-A1
  33   1.0000      -5.498971      -149.6346    1-A2
  34   1.0000      -5.498971      -149.6346    2-B2
  35   1.0000      -5.498621      -149.6251    2-A2
  36   1.0000      -5.498621      -149.6251    3-B2
  37   1.0000      -3.990941      -108.5990   18-A1
  38   1.0000      -2.505451       -68.1768    4-B2
  39   1.0000      -2.504059       -68.1389   16-B1
  40   1.0000      -2.502485       -68.0961   19-A1
  41   1.0000      -0.594675       -16.1819   20-A1
  42   1.0000      -0.587042       -15.9742   21-A1
  43   1.0000      -0.507573       -13.8118   22-A1
  44   1.0000      -0.499379       -13.5888   23-A1
  45   1.0000      -0.498972       -13.5777   17-B1
  46   1.0000      -0.483940       -13.1687   18-B1
  47   1.0000      -0.409291       -11.1374   19-B1
  48   1.0000      -0.400825       -10.9070   20-B1
  49   1.0000      -0.388413       -10.5693   24-A1
  50   1.0000      -0.374171       -10.1817   25-A1
  51   1.0000      -0.322659        -8.7800   26-A1
  52   1.0000      -0.318492        -8.6666   27-A1
  53   1.0000      -0.302563        -8.2332   21-B1
  54   1.0000      -0.287539        -7.8243   22-B1
  55   1.0000      -0.234919        -6.3925   28-A1
  56   1.0000      -0.228454        -6.2165   29-A1
  57   1.0000      -0.188943        -5.1414   30-A1
  58   1.0000      -0.183376        -4.9899   31-A1
  59   1.0000      -0.177607        -4.8329   23-B1
  60   1.0000      -0.170259        -4.6330   24-B1
  61   1.0000      -0.143450        -3.9035   25-B1
  62   1.0000      -0.138474        -3.7681   26-B1
  63   1.0000      -0.129101        -3.5130   32-A1
  64   1.0000      -0.120795        -3.2870    5-B2
  65   1.0000      -0.115268        -3.1366    6-B2
  66   1.0000      -0.112618        -3.0645   33-A1
  67   1.0000      -0.083982        -2.2853   34-A1
  68   1.0000      -0.067201        -1.8286   27-B1
  69   1.0000      -0.060172        -1.6374   35-A1
  70   1.0000      -0.049546        -1.3482   28-B1
  71   1.0000      -0.039236        -1.0677    7-B2
  72   1.0000      -0.035064        -0.9541    8-B2
  73   1.0000      -0.026648        -0.7251    3-A2
  74   1.0000      -0.022805        -0.6205   36-A1
  75   1.0000      -0.018327        -0.4987    4-A2
  76   1.0000      -0.002929        -0.0797   29-B1
  77   1.0000       0.006245         0.1699    5-A2
  78   1.0000       0.009734         0.2649   37-A1
  79   1.0000       0.013153         0.3579    9-B2
  80   1.0000       0.025296         0.6883   38-A1
  81   1.0000       0.033736         0.9180   39-A1
  82   1.0000       0.042640         1.1603   30-B1
  83   1.0000       0.052089         1.4174    6-A2
  84   1.0000       0.057737         1.5711    7-A2
  85   1.0000       0.063870         1.7380   10-B2
  86   1.0000       0.091270         2.4836   11-B2
  87   0.0000       0.137652         3.7457   31-B1
  88   0.0000       0.181508         4.9391   40-A1
  89   0.0000       0.182803         4.9743   41-A1
  90   0.0000       0.195107         5.3091   32-B1
  91   0.0000       0.198251         5.3947   12-B2

MULLIKEN ATOMIC CHARGES AND SPIN POPULATIONS
--------------------------------------------
   0 Cu:    0.140762    0.375848
   1 S :   -0.417728    0.160574
   2 C :    0.042930   -0.007061
   3 S :   -0.430580    0.165163
   4 C :   -0.001885   -0.008197
   5 S :   -0.417728    0.160574
   6 C :    0.042930   -0.007061
   7 S :   -0.430580    0.165163
   8 C :   -0.001885   -0.008197
   9 C :   -0.006051   -0.001033
  10 C :   -0.006051   -0.001033
  11 C :   -0.167339   -0.001327
  12 H :    0.055211    0.001579
  13 C :   -0.167339   -0.001327
  14 H :    0.055211    0.001579
  15 H :    0.016468    0.001521
  16 H :    0.016468    0.001521
  17 C :   -0.146990   -0.001834
  18 C :   -0.146990   -0.001834
  19 C :   -0.103236   -0.000585
  20 H :    0.070195    0.002306
  21 C :   -0.103236   -0.000585
  22 H :    0.070195    0.002306
  23 H :    0.018624    0.000972
  24 H :    0.018624    0.000972
Sum of atomic charges         :   -2.0000000

LOEWDIN ATOMIC CHARGES AND SPIN POPULATIONS
-------------------------------------------
   0 Cu:   -0.894928    0.442505
   1 S :    0.015511    0.121505
   2 C :   -0.041885    0.005382
   3 S :    0.002859    0.126596
   4 C :   -0.033240    0.004813
   5 S :    0.015511    0.121505
   6 C :   -0.041885    0.005382
   7 S :    0.002859    0.126596
   8 C :   -0.033240    0.004813
   9 C :    0.287862    0.003957
  10 C :    0.287862    0.003957
  11 C :    0.310728   -0.000209
  12 H :   -0.430484    0.005534
  13 C :    0.310728   -0.000209
  14 H :   -0.430484    0.005534
  15 H :   -0.407162    0.000232
  16 H :   -0.407162    0.000232
  17 C :    0.313816    0.003805
  18 C :    0.313816    0.003805
  19 C :    0.299488   -0.000051
  20 H :   -0.461192    0.006932
  21 C :    0.299488   -0.000051
  22 H :   -0.461192    0.006932
  23 H :   -0.408837    0.000252
  24 H :   -0.408837    0.000252

  Mayer bond orders larger than 0.100000
B(  0-Cu,  1-S ) :   0.6988 B(  0-Cu,  3-S ) :   0.7040 B(  0-Cu,  5-S ) :   0.6988
B(  0-Cu,  7-S ) :   0.7040 B(  1-S ,  2-C ) :   1.1943 B(  2-C ,  6-C ) :   1.2305
B(  2-C , 17-C ) :   1.3287 B(  3-S ,  4-C ) :   1.1743 B(  4-C ,  8-C ) :   1.2610
B(  4-C , 10-C ) :   1.3054 B(  5-S ,  6-C ) :   1.1943 B(  6-C , 18-C ) :   1.3287
B(  7-S ,  8-C ) :   1.1743 B(  8-C ,  9-C ) :   1.3054 B(  9-C , 13-C ) :   1.3680
B(  9-C , 14-H ) :   0.9713 B( 10-C , 11-C ) :   1.3680 B( 10-C , 12-H ) :   0.9713
B( 11-C , 13-C ) :   1.3294 B( 11-C , 15-H ) :   0.9923 B( 13-C , 16-H ) :   0.9923
B( 17-C , 19-C ) :   1.3526 B( 17-C , 20-H ) :   0.9680 B( 18-C , 21-C ) :   1.3526
B( 18-C , 22-H ) :   0.9680 B( 19-C , 21-C ) :   1.3401 B( 19-C , 23-H ) :   0.9895
B( 21-C , 24-H ) :   0.9895

FINAL SINGLE POINT ENERGY     -3686.901025734798

DIPOLE MOMENT
-------------
                                X             Y             Z
Electronic contribution:      0.00000      -0.00000       0.27325
Nuclear contribution   :      0.00000       0.00000      -0.13263
                        -----------------------------------------
Total Dipole Moment    :      0.00000      -0.00000       0.14063
                        -----------------------------------------
Magnitude (a.u.)       :      0.14063
Magnitude (Debye)      :      0.35745

Rotational constants in cm-1:     0.033380     0.004804     0.004200
Rotational constants in MHz :  1000.698116   144.034963   125.911899

                             ****ORCA TERMINATED NORMALLY****
TOTAL RUN TIME: 0 days 4 hours 37 minutes 58 seconds 901 msec
