                         Program Version 5.0.4 -  RELEASE  -
|  1> ! RIJCOSX nofrozencore ReducedPop printbasis
|  2> ! M06L ano-rcc-dzp autoaux
|  3>
|  4> %maxcore 5000
|  5> %basis
|  6> PCDTrimBas overlap
|  7> PCDTrimAuxJ Coulomb
|  8> PCDTrimAuxJK Coulomb
|  9> PCDTrimAuxC Coulomb
| 10> PCDThresh -1
| 11> end
| 12>
| 13> %basis
| 14> newgto Cu "ano-rcc-tzp" end
| 15> newgto S "ano-rcc-tzp" end
| 16> end
| 17>
| 18> %pal
| 19> nprocs 12
| 20> end
| 21>
| 22> % sym SymThresh 1e-2 end
| 23> * xyz -2 2
| 24> Cu 0.00023405179539995883 -3.926079180072714e-05 7.039422772668064e-05
| 25> S -1.4610872844277867 -0.03711240063574005 1.798929258993663
| 26> C -0.43412220534214857 -0.34035125251876436 3.146647204925709
| 27> S -1.7324439152522502 0.4119843653467418 -1.4837994418803027
| 28> C -0.9942801910425973 0.5222856809976157 -3.1188175346727407
| 29> S 1.732932388775113 -0.412031388385968 1.4836694132248305
| 30> C 0.9634276580894491 -0.5120014509711893 3.069015280013555
| 31> S 1.4614515408724718 0.03692205660594183 -1.7977945769268153
| 32> C 0.4456491242473346 0.33516806579428515 -3.117404936256325
| 33> C 0.9588355460643234 0.45635040668413673 -4.607058266252312
| 34> C -1.7226313067675307 0.7321928392564282 -4.033743183054048
| 35> C -1.124017187447779 0.8472621275575648 -5.562878305124661
| 36> H -2.833062029373131 0.9068043043258411 -4.275261513176045
| 37> C 0.31322919554539524 0.6516121166446976 -5.491025435259684
| 38> H 2.0479194450164186 0.2882242122051147 -4.3949980295899325
| 39> H -1.9212744226838712 1.0450841242888054 -6.310990176947296
| 40> H 0.5054204957819737 0.7660379956432057 -6.596541750756562
| 41> C -0.9935128116266622 -0.4420280902026597 4.52916512888628
| 42> C 1.731806050391554 -0.7449962150716567 4.1258496571162295
| 43> C -0.24234655081016176 -0.668556822488216 5.552436296751893
| 44> H -2.075490157183597 -0.295377826482209 4.480130324040212
| 45> C 1.1144229494438207 -0.8396031549060785 5.512008338159395
| 46> H 2.820099558380067 -0.8896485052042656 4.152532783665575
| 47> H -0.6373347430420799 -0.7446230178816574 6.562520969735663
| 48> H 1.8556820901909248 -1.0347101276077786 6.296249344847419
| 49> *
| 50>
| 51> % eprnmr
| 52> gtensor true
| 53> Nuclei = all H {aiso,adip,aorb,fgrad,rho}
| 54> Nuclei = all Cu {aiso,adip,aorb,fgrad,rho}
| 55> end
| 56>
| 57>                          ****END OF INPUT****

CARTESIAN COORDINATES (ANGSTROEM)
---------------------------------
  Cu     0.000073    0.000237    0.000000
  S      1.801247   -1.458701    0.000000
  C      3.167928   -0.412213    0.000000
  S     -1.509564   -1.758969    0.000000
  C     -3.151478   -1.027904    0.000000
  S      1.509437    1.759460    0.000000
  C      3.101032    0.996390    0.000000
  S     -1.800101    1.459078    0.000000
  C     -3.138362    0.424074    0.000000
  C     -4.635592    0.929460    0.000000
  C     -4.079530   -1.769769    0.000000
  C     -5.615859   -1.178561    0.000000
  H     -4.331969   -2.891443    0.000000
  C     -5.531770    0.271283    0.000000
  H     -4.413017    2.029369    0.000000
  H     -6.376342   -1.988555    0.000000
  H     -6.644441    0.456108    0.000000
  C      4.556803   -0.965059    0.000000
  C      4.172437    1.779768    0.000000
  C      5.594240   -0.199309    0.000000
  H      4.498596   -2.056479    0.000000
  C      5.564510    1.168474    0.000000
  H      4.208167    2.877376    0.000000
  H      6.609081   -0.589401    0.000000
  H      6.360953    1.922295    0.000000

 Total Charge           Charge          ....   -2
 Multiplicity           Mult            ....    2
 Number of Electrons    NEL             ....  175
 Basis Dimension        Dim             ....  475

ORBITAL ENERGIES
----------------
                 SPIN UP ORBITALS
  NO   OCC          E(Eh)            E(eV)    Irrep
   0   1.0000    -318.185442     -8658.2661    1-A'
   1   1.0000     -88.039934     -2395.6884    2-A'
   2   1.0000     -88.025690     -2395.3008    3-A'
   3   1.0000     -88.010527     -2394.8882    4-A'
   4   1.0000     -88.002337     -2394.6653    5-A'
   5   1.0000     -38.030439     -1034.8608    6-A'
   6   1.0000     -33.533523      -912.4935    7-A'
   7   1.0000     -33.532665      -912.4702    8-A'
   8   1.0000     -33.519183      -912.1033    1-A"
   9   1.0000      -9.854699      -268.1600    9-A'
  10   1.0000      -9.843042      -267.8428   10-A'
  11   1.0000      -9.827589      -267.4223   11-A'
  12   1.0000      -9.827551      -267.4213   12-A'
  13   1.0000      -9.826215      -267.3849   13-A'
  14   1.0000      -9.822654      -267.2880   14-A'
  15   1.0000      -9.820773      -267.2368   15-A'
  16   1.0000      -9.815882      -267.1037   16-A'
  17   1.0000      -9.815435      -267.0916   17-A'
  18   1.0000      -9.812787      -267.0195   18-A'
  19   1.0000      -9.812178      -267.0029   19-A'
  20   1.0000      -9.801677      -266.7172   20-A'
  21   1.0000      -7.608299      -207.0323   21-A'
  22   1.0000      -7.594162      -206.6477   22-A'
  23   1.0000      -7.579458      -206.2475   23-A'
  24   1.0000      -7.571186      -206.0225   24-A'
  25   1.0000      -5.531145      -150.5101   25-A'
  26   1.0000      -5.525529      -150.3573   26-A'
  27   1.0000      -5.525414      -150.3542    2-A"
  28   1.0000      -5.517260      -150.1323   27-A'
  29   1.0000      -5.511938      -149.9875   28-A'
  30   1.0000      -5.510557      -149.9499    3-A"
  31   1.0000      -5.502738      -149.7371   29-A'
  32   1.0000      -5.497525      -149.5953   30-A'
  33   1.0000      -5.495229      -149.5328    4-A"
  34   1.0000      -5.494657      -149.5172   31-A'
  35   1.0000      -5.489548      -149.3782   32-A'
  36   1.0000      -5.486620      -149.2985    5-A"
  37   1.0000      -4.027987      -109.6071   33-A'
  38   1.0000      -2.549283       -69.3695   34-A'
  39   1.0000      -2.547720       -69.3270   35-A'
  40   1.0000      -2.520816       -68.5949    6-A"
  41   1.0000      -0.598057       -16.2740   36-A'
  42   1.0000      -0.593708       -16.1556   37-A'
  43   1.0000      -0.533311       -14.5121   38-A'
  44   1.0000      -0.516590       -14.0571   39-A'
  45   1.0000      -0.486753       -13.2452   40-A'
  46   1.0000      -0.485923       -13.2226   41-A'
  47   1.0000      -0.411997       -11.2110   42-A'
  48   1.0000      -0.410072       -11.1586   43-A'
  49   1.0000      -0.386107       -10.5065   44-A'
  50   1.0000      -0.374235       -10.1835   45-A'
  51   1.0000      -0.326878        -8.8948   46-A'
  52   1.0000      -0.324220        -8.8225   47-A'
  53   1.0000      -0.298322        -8.1178   48-A'
  54   1.0000      -0.291410        -7.9297   49-A'
  55   1.0000      -0.236849        -6.4450   50-A'
  56   1.0000      -0.231922        -6.3109   51-A'
  57   1.0000      -0.203995        -5.5510   52-A'
  58   1.0000      -0.203577        -5.5396   53-A'
  59   1.0000      -0.181851        -4.9484   54-A'
  60   1.0000      -0.178810        -4.8657   55-A'
  61   1.0000      -0.138307        -3.7635   56-A'
  62   1.0000      -0.131011        -3.5650   57-A'
  63   1.0000      -0.127656        -3.4737    7-A"
  64   1.0000      -0.121095        -3.2952    8-A"
  65   1.0000      -0.116825        -3.1790   58-A'
  66   1.0000      -0.107077        -2.9137   59-A'
  67   1.0000      -0.097578        -2.6552   60-A'
  68   1.0000      -0.084943        -2.3114   61-A'
  69   1.0000      -0.064978        -1.7681    9-A"
  70   1.0000      -0.050329        -1.3695   62-A'
  71   1.0000      -0.048246        -1.3128   10-A"
  72   1.0000      -0.042977        -1.1695   63-A'
  73   1.0000      -0.031961        -0.8697   11-A"
  74   1.0000      -0.028345        -0.7713   64-A'
  75   1.0000      -0.020626        -0.5613   12-A"
  76   1.0000      -0.009319        -0.2536   65-A'
  77   1.0000      -0.008412        -0.2289   13-A"
  78   1.0000       0.002882         0.0784   14-A"
  79   1.0000       0.004612         0.1255   66-A'
  80   1.0000       0.014099         0.3837   67-A'
  81   1.0000       0.023281         0.6335   68-A'
  82   1.0000       0.035455         0.9648   69-A'
  83   1.0000       0.050324         1.3694   15-A"
  84   1.0000       0.054482         1.4825   16-A"
  85   1.0000       0.063067         1.7161   17-A"
  86   1.0000       0.085963         2.3392   18-A"
  87   1.0000       0.101632         2.7655   70-A'
  88   0.0000       0.166387         4.5276   19-A"
  89   0.0000       0.180407         4.9091   71-A'
  90   0.0000       0.182909         4.9772   72-A'
  91   0.0000       0.184215         5.0128   20-A"
  92   0.0000       0.195190         5.3114   73-A'

                 SPIN DOWN ORBITALS
  NO   OCC          E(Eh)            E(eV)    Irrep
   0   1.0000    -318.185267     -8658.2613    1-A'
   1   1.0000     -88.038959     -2395.6619    2-A'
   2   1.0000     -88.024586     -2395.2707    3-A'
   3   1.0000     -88.009489     -2394.8599    4-A'
   4   1.0000     -88.001197     -2394.6343    5-A'
   5   1.0000     -38.014825     -1034.4360    6-A'
   6   1.0000     -33.518609      -912.0877    7-A'
   7   1.0000     -33.517785      -912.0653    8-A'
   8   1.0000     -33.514911      -911.9871    1-A"
   9   1.0000      -9.854829      -268.1635    9-A'
  10   1.0000      -9.843173      -267.8464   10-A'
  11   1.0000      -9.827644      -267.4238   11-A'
  12   1.0000      -9.827568      -267.4217   12-A'
  13   1.0000      -9.826144      -267.3830   13-A'
  14   1.0000      -9.822618      -267.2870   14-A'
  15   1.0000      -9.820739      -267.2359   15-A'
  16   1.0000      -9.815799      -267.1015   16-A'
  17   1.0000      -9.815452      -267.0920   17-A'
  18   1.0000      -9.812826      -267.0206   18-A'
  19   1.0000      -9.812133      -267.0017   19-A'
  20   1.0000      -9.801580      -266.7146   20-A'
  21   1.0000      -7.607631      -207.0142   21-A'
  22   1.0000      -7.593407      -206.6271   22-A'
  23   1.0000      -7.578747      -206.2282   23-A'
  24   1.0000      -7.570416      -206.0015   24-A'
  25   1.0000      -5.530297      -150.4870   25-A'
  26   1.0000      -5.524627      -150.3328    2-A"
  27   1.0000      -5.523536      -150.3031   26-A'
  28   1.0000      -5.516301      -150.1062   27-A'
  29   1.0000      -5.509700      -149.9266    3-A"
  30   1.0000      -5.509642      -149.9250   28-A'
  31   1.0000      -5.501821      -149.7122   29-A'
  32   1.0000      -5.495341      -149.5358   30-A'
  33   1.0000      -5.494451      -149.5116    4-A"
  34   1.0000      -5.493617      -149.4889   31-A'
  35   1.0000      -5.487193      -149.3141   32-A'
  36   1.0000      -5.485784      -149.2758    5-A"
  37   1.0000      -3.994896      -108.7067   33-A'
  38   1.0000      -2.509264       -68.2805    6-A"
  39   1.0000      -2.508436       -68.2580   34-A'
  40   1.0000      -2.506016       -68.1921   35-A'
  41   1.0000      -0.597653       -16.2630   36-A'
  42   1.0000      -0.593342       -16.1457   37-A'
  43   1.0000      -0.532516       -14.4905   38-A'
  44   1.0000      -0.515581       -14.0297   39-A'
  45   1.0000      -0.485160       -13.2019   40-A'
  46   1.0000      -0.483418       -13.1545   41-A'
  47   1.0000      -0.409019       -11.1300   42-A'
  48   1.0000      -0.407568       -11.0905   43-A'
  49   1.0000      -0.382474       -10.4076   44-A'
  50   1.0000      -0.369629       -10.0581   45-A'
  51   1.0000      -0.325403        -8.8547   46-A'
  52   1.0000      -0.322459        -8.7746   47-A'
  53   1.0000      -0.296519        -8.0687   48-A'
  54   1.0000      -0.289853        -7.8873   49-A'
  55   1.0000      -0.236217        -6.4278   50-A'
  56   1.0000      -0.231278        -6.2934   51-A'
  57   1.0000      -0.203029        -5.5247   52-A'
  58   1.0000      -0.202776        -5.5178   53-A'
  59   1.0000      -0.181224        -4.9314   54-A'
  60   1.0000      -0.177812        -4.8385   55-A'
  61   1.0000      -0.136874        -3.7245   56-A'
  62   1.0000      -0.130057        -3.5390   57-A'
  63   1.0000      -0.127511        -3.4697    7-A"
  64   1.0000      -0.120920        -3.2904    8-A"
  65   1.0000      -0.115535        -3.1439   58-A'
  66   1.0000      -0.103850        -2.8259   59-A'
  67   1.0000      -0.094665        -2.5760   60-A'
  68   1.0000      -0.081691        -2.2229   61-A'
  69   1.0000      -0.064462        -1.7541    9-A"
  70   1.0000      -0.047225        -1.2851   10-A"
  71   1.0000      -0.042301        -1.1511   62-A'
  72   1.0000      -0.028727        -0.7817   63-A'
  73   1.0000      -0.027607        -0.7512   11-A"
  74   1.0000      -0.018956        -0.5158   12-A"
  75   1.0000      -0.006718        -0.1828   64-A'
  76   1.0000      -0.000627        -0.0171   65-A'
  77   1.0000       0.003074         0.0837   13-A"
  78   1.0000       0.013619         0.3706   14-A"
  79   1.0000       0.013732         0.3737   66-A'
  80   1.0000       0.024214         0.6589   67-A'
  81   1.0000       0.030999         0.8435   68-A'
  82   1.0000       0.043659         1.1880   69-A'
  83   1.0000       0.053646         1.4598   15-A"
  84   1.0000       0.058492         1.5917   16-A"
  85   1.0000       0.064547         1.7564   17-A"
  86   1.0000       0.089873         2.4456   18-A"
  87   0.0000       0.133672         3.6374   70-A'
  88   0.0000       0.166768         4.5380   19-A"
  89   0.0000       0.181602         4.9416   71-A'
  90   0.0000       0.183841         5.0026   72-A'
  91   0.0000       0.184450         5.0192   20-A"

MULLIKEN ATOMIC CHARGES AND SPIN POPULATIONS
--------------------------------------------
   0 Cu:    0.137129    0.371323
   1 S :   -0.375860    0.164358
   2 C :    0.017473   -0.008617
   3 S :   -0.500415    0.179174
   4 C :    0.048337   -0.007723
   5 S :   -0.467827    0.162204
   6 C :    0.047931   -0.007144
   7 S :   -0.324335    0.142293
   8 C :   -0.012606   -0.008816
   9 C :   -0.128374    0.003366
  10 C :    0.031361   -0.001979
  11 C :   -0.264432   -0.000228
  12 H :    0.011779    0.003514
  13 C :    0.014717   -0.000173
  14 H :    0.045781    0.002173
  15 H :    0.020747    0.001274
  16 H :   -0.017092    0.002150
  17 C :   -0.145559   -0.000691
  18 C :   -0.055119   -0.001627
  19 C :   -0.059614   -0.000297
  20 H :    0.062595    0.002785
  21 C :   -0.192554   -0.001460
  22 H :    0.050012    0.001488
  23 H :    0.032338    0.001520
  24 H :    0.023590    0.001132
Sum of atomic charges         :   -2.0000000

LOEWDIN ATOMIC CHARGES AND SPIN POPULATIONS
-------------------------------------------
   0 Cu:   -0.890978    0.436045
   1 S :    0.043142    0.128371
   2 C :   -0.007710    0.005488
   3 S :   -0.036245    0.133108
   4 C :   -0.114323    0.004643
   5 S :   -0.018355    0.120443
   6 C :   -0.073565    0.004529
   7 S :    0.086206    0.113570
   8 C :    0.044091    0.005111
   9 C :    0.244474    0.004837
  10 C :    0.275802    0.005101
  11 C :    0.391976    0.000829
  12 H :   -0.384109    0.005767
  13 C :    0.190287    0.000430
  14 H :   -0.437631    0.008870
  15 H :   -0.429151    0.000012
  16 H :   -0.395454    0.001233
  17 C :    0.304051    0.004428
  18 C :    0.317742    0.003760
  19 C :    0.257403    0.000264
  20 H :   -0.449492    0.007633
  21 C :    0.343399   -0.000344
  22 H :   -0.428647    0.005236
  23 H :   -0.415286    0.000598
  24 H :   -0.417628    0.000037

  Mayer bond orders larger than 0.100000
B(  0-Cu,  1-S ) :   0.6905 B(  0-Cu,  3-S ) :   0.7396 B(  0-Cu,  5-S ) :   0.7147
B(  0-Cu,  7-S ) :   0.6516 B(  1-S ,  2-C ) :   1.2415 B(  2-C ,  6-C ) :   1.2369
B(  2-C , 17-C ) :   1.2632 B(  3-S ,  4-C ) :   1.0597 B(  4-C ,  8-C ) :   1.1858
B(  4-C , 10-C ) :   1.4856 B(  5-S ,  6-C ) :   1.1256 B(  6-C , 18-C ) :   1.3796
B(  7-S ,  8-C ) :   1.3326 B(  7-S , 11-C ) :   0.1042 B(  8-C ,  9-C ) :   1.1420
B(  8-C , 11-C ) :   0.1473 B(  9-C , 13-C ) :   1.5730 B(  9-C , 14-H ) :   0.9435
B( 10-C , 11-C ) :   1.1887 B( 10-C , 12-H ) :   0.9526 B( 11-C , 13-C ) :   1.2202
B( 11-C , 15-H ) :   0.9951 B( 13-C , 16-H ) :   0.9607 B( 17-C , 19-C ) :   1.4069
B( 17-C , 20-H ) :   0.9663 B( 18-C , 21-C ) :   1.2926 B( 18-C , 22-H ) :   0.9713
B( 19-C , 21-C ) :   1.3380 B( 19-C , 23-H ) :   0.9819 B( 21-C , 24-H ) :   0.9909

FINAL SINGLE POINT ENERGY     -3686.645111699691

DIPOLE MOMENT
-------------
                                X             Y             Z
Electronic contribution:      0.48166       0.49792       0.00000
Nuclear contribution   :     -0.08388      -0.22710       0.00000
                        -----------------------------------------
Total Dipole Moment    :      0.39778       0.27082       0.00000
                        -----------------------------------------
Magnitude (a.u.)       :      0.48122
Magnitude (Debye)      :      1.22317

Rotational constants in cm-1:     0.033401     0.004803     0.004199
Rotational constants in MHz :  1001.335643   144.002177   125.896928

                             ****ORCA TERMINATED NORMALLY****
TOTAL RUN TIME: 0 days 5 hours 42 minutes 55 seconds 841 msec
