                         Program Version 5.0.4 -  RELEASE  -
|  1> ! RIJCOSX nofrozencore ReducedPop printbasis
|  2> ! M06L ano-rcc-dzp autoaux
|  3>
|  4> %maxcore 5000
|  5> %basis
|  6> PCDTrimBas overlap
|  7> PCDTrimAuxJ Coulomb
|  8> PCDTrimAuxJK Coulomb
|  9> PCDTrimAuxC Coulomb
| 10> PCDThresh -1
| 11> end
| 12>
| 13> %basis
| 14> newgto Cu "ano-rcc-tzp" end
| 15> newgto S "ano-rcc-tzp" end
| 16> end
| 17>
| 18> %pal
| 19> nprocs 12
| 20> end
| 21>
| 22> % sym SymThresh 1e-2 end
| 23> * xyz -2 2
| 24> Cu 0.0002906356030458494 0.0008976813669118573 -0.0005280947923824232
| 25> S 1.827065558545412 1.2898937680711022 -0.6071391032815087
| 26> C 3.223180167327842 0.41657724043142547 0.08730693605895788
| 27> S -1.481555955962213 1.4408531119940968 -1.0572917280518277
| 28> C -2.89212494847048 0.8795475886153454 -0.8593345009578953
| 29> S 1.4609512212079923 -1.4530234119715821 1.0626578801337416
| 30> C 3.011233154198434 -0.7846394367989603 0.8130130228827586
| 31> S -1.8116824356640124 -1.3025749425158977 0.6166967324392246
| 32> C -3.2990135243563423 -0.3180912074731219 -0.1568381760804325
| 33> C -4.519095534361848 -1.113303133282372 0.2073744662065532
| 34> C -4.1924772342935785 1.2388631498216063 -1.2231838295207937
| 35> C -5.549850409488697 0.962322460435501 -1.196947566990093
| 36> H -4.14312727811413 2.1678690783470107 -1.7967659350573395
| 37> C -5.520888717842591 -0.24736923052663926 -0.4400330190758955
| 38> H -4.488968510046357 -2.0391116993892915 0.7875177741460168
| 39> H -6.282962187251055 1.6167399851059827 -1.6836360294784423
| 40> H -6.586354980072517 -0.5474138043654866 -0.3677347258065929
| 41> C 4.49673692913764 0.9835290727052125 -0.12891440601193066
| 42> C 4.181244950270537 -1.359779652060078 1.297321914032328
| 43> C 5.5998624976445095 0.29562734166995275 0.41846127121723525
| 44> H 4.557939498766612 1.907138325625128 -0.6978580520169864
| 45> C 5.473085310963223 -0.8968761032490467 1.1479041287705174
| 46> H 4.045811832014646 -2.2806843358510975 1.8565913140009374
| 47> H 6.605490262718468 0.6901483468359625 0.28085166984742715
| 48> H 6.2982694963643695 -1.4529672250878858 1.583231407668666
| 49> *
| 50>
| 51> % eprnmr
| 52> gtensor true
| 53> Nuclei = all H {aiso,adip,aorb,fgrad,rho}
| 54> Nuclei = all Cu {aiso,adip,aorb,fgrad,rho}
| 55> end
| 56>
| 57>                          ****END OF INPUT****

CARTESIAN COORDINATES (ANGSTROEM)
---------------------------------
  Cu     0.000262    0.001049    0.000000
  S      1.793858    1.467202    0.000000
  C      3.226600    0.398874    0.000000
  S     -1.537571    1.739197    0.000000
  C     -2.936996    1.118258    0.000000
  S      1.517261   -1.752945    0.000000
  C      3.053578   -1.009868    0.000000
  S     -1.777970   -1.482576    0.000000
  C     -3.306126   -0.280720    0.000000
  C     -4.506239   -1.182574    0.000000
  C     -4.256317    1.578477    0.000000
  C     -5.611759    1.291415    0.000000
  H     -4.237687    2.671242    0.000000
  C     -5.542295   -0.134168    0.000000
  H     -4.445072   -2.273837    0.000000
  H     -6.370635    2.083051    0.000000
  H     -6.603477   -0.457222    0.000000
  C      4.488089    1.030364    0.000000
  C      4.249057   -1.720571    0.000000
  C      5.620083    0.188757    0.000000
  H      4.518815    2.116436    0.000000
  C      5.532398   -1.212148    0.000000
  H      4.143611   -2.801344    0.000000
  H      6.617955    0.624788    0.000000
  H      6.380562   -1.890598    0.000000

 Total Charge           Charge          ....   -2
 Multiplicity           Mult            ....    2
 Number of Electrons    NEL             ....  175
 Basis Dimension        Dim             ....  475

ORBITAL ENERGIES
----------------
                 SPIN UP ORBITALS
  NO   OCC          E(Eh)            E(eV)    Irrep
   0   1.0000    -318.182092     -8658.1749    1-A'
   1   1.0000     -88.018197     -2395.0969    2-A'
   2   1.0000     -88.016472     -2395.0500    3-A'
   3   1.0000     -88.013392     -2394.9661    4-A'
   4   1.0000     -88.003974     -2394.7099    5-A'
   5   1.0000     -38.027100     -1034.7700    6-A'
   6   1.0000     -33.530229      -912.4039    7-A'
   7   1.0000     -33.529348      -912.3800    8-A'
   8   1.0000     -33.515785      -912.0109    1-A"
   9   1.0000      -9.853314      -268.1223    9-A'
  10   1.0000      -9.851519      -268.0735   10-A'
  11   1.0000      -9.843297      -267.8497   11-A'
  12   1.0000      -9.838969      -267.7319   12-A'
  13   1.0000      -9.838434      -267.7174   13-A'
  14   1.0000      -9.834876      -267.6206   14-A'
  15   1.0000      -9.830921      -267.5130   15-A'
  16   1.0000      -9.828196      -267.4388   16-A'
  17   1.0000      -9.826034      -267.3800   17-A'
  18   1.0000      -9.823124      -267.3008   18-A'
  19   1.0000      -9.816328      -267.1159   19-A'
  20   1.0000      -9.813451      -267.0376   20-A'
  21   1.0000      -7.593715      -206.6355   21-A'
  22   1.0000      -7.585726      -206.4181   22-A'
  23   1.0000      -7.581501      -206.3031   23-A'
  24   1.0000      -7.570528      -206.0046   24-A'
  25   1.0000      -5.516179      -150.1029   25-A'
  26   1.0000      -5.510561      -149.9500   26-A'
  27   1.0000      -5.509777      -149.9287    2-A"
  28   1.0000      -5.508927      -149.9055   27-A'
  29   1.0000      -5.504725      -149.7912   28-A'
  30   1.0000      -5.503659      -149.7622   29-A'
  31   1.0000      -5.501734      -149.7098    3-A"
  32   1.0000      -5.499433      -149.6472   30-A'
  33   1.0000      -5.497601      -149.5973    4-A"
  34   1.0000      -5.493547      -149.4870   31-A'
  35   1.0000      -5.489189      -149.3684   32-A'
  36   1.0000      -5.486729      -149.3015    5-A"
  37   1.0000      -4.024688      -109.5173   33-A'
  38   1.0000      -2.546027       -69.2809   34-A'
  39   1.0000      -2.544484       -69.2389   35-A'
  40   1.0000      -2.517409       -68.5022    6-A"
  41   1.0000      -0.599225       -16.3057   36-A'
  42   1.0000      -0.590261       -16.0618   37-A'
  43   1.0000      -0.528427       -14.3792   38-A'
  44   1.0000      -0.504944       -13.7402   39-A'
  45   1.0000      -0.490277       -13.3411   40-A'
  46   1.0000      -0.480047       -13.0628   41-A'
  47   1.0000      -0.420338       -11.4380   42-A'
  48   1.0000      -0.408143       -11.1061   43-A'
  49   1.0000      -0.385212       -10.4821   44-A'
  50   1.0000      -0.373060       -10.1515   45-A'
  51   1.0000      -0.331005        -9.0071   46-A'
  52   1.0000      -0.323038        -8.7903   47-A'
  53   1.0000      -0.298930        -8.1343   48-A'
  54   1.0000      -0.283208        -7.7065   49-A'
  55   1.0000      -0.246177        -6.6988   50-A'
  56   1.0000      -0.231126        -6.2893   51-A'
  57   1.0000      -0.196056        -5.3350   52-A'
  58   1.0000      -0.189082        -5.1452   53-A'
  59   1.0000      -0.176416        -4.8005   54-A'
  60   1.0000      -0.168274        -4.5790   55-A'
  61   1.0000      -0.153214        -4.1692   56-A'
  62   1.0000      -0.152668        -4.1543   57-A'
  63   1.0000      -0.144110        -3.9214   58-A'
  64   1.0000      -0.124730        -3.3941    7-A"
  65   1.0000      -0.117764        -3.2045    8-A"
  66   1.0000      -0.117209        -3.1894   59-A'
  67   1.0000      -0.077334        -2.1044   60-A'
  68   1.0000      -0.062956        -1.7131   61-A'
  69   1.0000      -0.053081        -1.4444    9-A"
  70   1.0000      -0.041314        -1.1242   62-A'
  71   1.0000      -0.038591        -1.0501   10-A"
  72   1.0000      -0.035546        -0.9672   63-A'
  73   1.0000      -0.024231        -0.6594   11-A"
  74   1.0000      -0.019872        -0.5407   64-A'
  75   1.0000      -0.014314        -0.3895   12-A"
  76   1.0000      -0.013342        -0.3631   65-A'
  77   1.0000      -0.002953        -0.0804   13-A"
  78   1.0000       0.000556         0.0151   14-A"
  79   1.0000       0.005819         0.1583   66-A'
  80   1.0000       0.017821         0.4849   67-A'
  81   1.0000       0.023968         0.6522   68-A'
  82   1.0000       0.035660         0.9704   69-A'
  83   1.0000       0.050607         1.3771   15-A"
  84   1.0000       0.053088         1.4446   16-A"
  85   1.0000       0.061644         1.6774   17-A"
  86   1.0000       0.086927         2.3654   18-A"
  87   1.0000       0.104114         2.8331   70-A'
  88   0.0000       0.177130         4.8200   71-A'
  89   0.0000       0.180997         4.9252   72-A'
  90   0.0000       0.194328         5.2879   19-A"
  91   0.0000       0.196649         5.3511   73-A'
  92   0.0000       0.199754         5.4356   74-A'

                 SPIN DOWN ORBITALS
  NO   OCC          E(Eh)            E(eV)    Irrep
   0   1.0000    -318.181917     -8658.1701    1-A'
   1   1.0000     -88.017326     -2395.0732    2-A'
   2   1.0000     -88.015286     -2395.0177    3-A'
   3   1.0000     -88.012420     -2394.9397    4-A'
   4   1.0000     -88.002761     -2394.6769    5-A'
   5   1.0000     -38.011452     -1034.3442    6-A'
   6   1.0000     -33.515277      -911.9970    7-A'
   7   1.0000     -33.514428      -911.9739    8-A'
   8   1.0000     -33.511521      -911.8949    1-A"
   9   1.0000      -9.853296      -268.1218    9-A'
  10   1.0000      -9.851521      -268.0735   10-A'
  11   1.0000      -9.843234      -267.8480   11-A'
  12   1.0000      -9.839104      -267.7356   12-A'
  13   1.0000      -9.838425      -267.7172   13-A'
  14   1.0000      -9.834970      -267.6232   14-A'
  15   1.0000      -9.831048      -267.5164   15-A'
  16   1.0000      -9.828181      -267.4384   16-A'
  17   1.0000      -9.826002      -267.3791   17-A'
  18   1.0000      -9.823087      -267.2998   18-A'
  19   1.0000      -9.816131      -267.1105   19-A'
  20   1.0000      -9.813359      -267.0351   20-A'
  21   1.0000      -7.593124      -206.6194   21-A'
  22   1.0000      -7.584913      -206.3960   22-A'
  23   1.0000      -7.580836      -206.2850   23-A'
  24   1.0000      -7.569711      -205.9823   24-A'
  25   1.0000      -5.515389      -150.0814   25-A'
  26   1.0000      -5.509110      -149.9105    2-A"
  27   1.0000      -5.508807      -149.9022   26-A'
  28   1.0000      -5.507888      -149.8773   27-A'
  29   1.0000      -5.503882      -149.7682   28-A'
  30   1.0000      -5.501191      -149.6950   29-A'
  31   1.0000      -5.500824      -149.6850    3-A"
  32   1.0000      -5.497380      -149.5913   30-A'
  33   1.0000      -5.496866      -149.5773    4-A"
  34   1.0000      -5.492401      -149.4558   31-A'
  35   1.0000      -5.486736      -149.3017   32-A'
  36   1.0000      -5.485821      -149.2768    5-A"
  37   1.0000      -3.991451      -108.6129   33-A'
  38   1.0000      -2.505858       -68.1879    6-A"
  39   1.0000      -2.504869       -68.1610   34-A'
  40   1.0000      -2.502713       -68.1023   35-A'
  41   1.0000      -0.598536       -16.2870   36-A'
  42   1.0000      -0.589867       -16.0511   37-A'
  43   1.0000      -0.526853       -14.3364   38-A'
  44   1.0000      -0.503549       -13.7023   39-A'
  45   1.0000      -0.489316       -13.3150   40-A'
  46   1.0000      -0.479324       -13.0431   41-A'
  47   1.0000      -0.417884       -11.3712   42-A'
  48   1.0000      -0.404115       -10.9965   43-A'
  49   1.0000      -0.381839       -10.3904   44-A'
  50   1.0000      -0.368138       -10.0175   45-A'
  51   1.0000      -0.330523        -8.9940   46-A'
  52   1.0000      -0.321696        -8.7538   47-A'
  53   1.0000      -0.296939        -8.0801   48-A'
  54   1.0000      -0.280562        -7.6345   49-A'
  55   1.0000      -0.245658        -6.6847   50-A'
  56   1.0000      -0.230446        -6.2708   51-A'
  57   1.0000      -0.195733        -5.3262   52-A'
  58   1.0000      -0.188153        -5.1199   53-A'
  59   1.0000      -0.175815        -4.7842   54-A'
  60   1.0000      -0.167011        -4.5446   55-A'
  61   1.0000      -0.152136        -4.1398   56-A'
  62   1.0000      -0.151781        -4.1302   57-A'
  63   1.0000      -0.141012        -3.8371   58-A'
  64   1.0000      -0.124327        -3.3831    7-A"
  65   1.0000      -0.117560        -3.1990    8-A"
  66   1.0000      -0.115841        -3.1522   59-A'
  67   1.0000      -0.075711        -2.0602   60-A'
  68   1.0000      -0.054090        -1.4719   61-A'
  69   1.0000      -0.051848        -1.4109    9-A"
  70   1.0000      -0.037106        -1.0097   10-A"
  71   1.0000      -0.034909        -0.9499   62-A'
  72   1.0000      -0.021639        -0.5888   11-A"
  73   1.0000      -0.016598        -0.4517   63-A'
  74   1.0000      -0.012568        -0.3420   12-A"
  75   1.0000      -0.008205        -0.2233   64-A'
  76   1.0000      -0.003834        -0.1043   65-A'
  77   1.0000       0.006509         0.1771   13-A"
  78   1.0000       0.012515         0.3405   14-A"
  79   1.0000       0.015619         0.4250   66-A'
  80   1.0000       0.027563         0.7500   67-A'
  81   1.0000       0.034082         0.9274   68-A'
  82   1.0000       0.043909         1.1948   69-A'
  83   1.0000       0.053533         1.4567   15-A"
  84   1.0000       0.057902         1.5756   16-A"
  85   1.0000       0.063769         1.7352   17-A"
  86   1.0000       0.091231         2.4825   18-A"
  87   0.0000       0.136593         3.7169   70-A'
  88   0.0000       0.178698         4.8626   71-A'
  89   0.0000       0.182262         4.9596   72-A'
  90   0.0000       0.194448         5.2912   19-A"
  91   0.0000       0.198537         5.4025   73-A'

MULLIKEN ATOMIC CHARGES AND SPIN POPULATIONS
--------------------------------------------
   0 Cu:    0.137572    0.373239
   1 S :   -0.441790    0.153215
   2 C :    0.049397   -0.007169
   3 S :   -0.362961    0.122750
   4 C :    0.059727   -0.007017
   5 S :   -0.413085    0.174401
   6 C :    0.014438   -0.007838
   7 S :   -0.485518    0.196200
   8 C :    0.039887   -0.005839
   9 C :   -0.152325   -0.004380
  10 C :   -0.047520    0.004086
  11 C :   -0.176204   -0.001555
  12 H :    0.076788    0.000437
  13 C :   -0.099661    0.001232
  14 H :    0.036410    0.003921
  15 H :    0.006420    0.001334
  16 H :    0.033607    0.001119
  17 C :   -0.123705   -0.001963
  18 C :   -0.053213   -0.000882
  19 C :   -0.130860   -0.001375
  20 H :    0.055466    0.002329
  21 C :   -0.163345   -0.000420
  22 H :    0.076747    0.001975
  23 H :    0.043040    0.000914
  24 H :    0.020688    0.001287
Sum of atomic charges         :   -2.0000000

LOEWDIN ATOMIC CHARGES AND SPIN POPULATIONS
-------------------------------------------
   0 Cu:   -0.885828    0.438218
   1 S :   -0.003080    0.113089
   2 C :   -0.012532    0.003061
   3 S :    0.101059    0.095290
   4 C :   -0.177744    0.012095
   5 S :    0.026414    0.137332
   6 C :   -0.063815    0.007333
   7 S :   -0.061737    0.144344
   8 C :    0.081660    0.003518
   9 C :    0.353319    0.004086
  10 C :    0.285067    0.005637
  11 C :    0.345302   -0.000349
  12 H :   -0.503771    0.003800
  13 C :    0.300973    0.000984
  14 H :   -0.440961    0.009422
  15 H :   -0.358181    0.000262
  16 H :   -0.489283    0.000459
  17 C :    0.314246    0.003279
  18 C :    0.298961    0.004769
  19 C :    0.314399   -0.000485
  20 H :   -0.446125    0.006512
  21 C :    0.317146    0.000222
  22 H :   -0.455172    0.006727
  23 H :   -0.434682    0.000065
  24 H :   -0.405637    0.000330

  Mayer bond orders larger than 0.100000
B(  0-Cu,  1-S ) :   0.7099 B(  0-Cu,  3-S ) :   0.6321 B(  0-Cu,  5-S ) :   0.6966
B(  0-Cu,  7-S ) :   0.7529 B(  1-S ,  2-C ) :   1.1476 B(  2-C ,  6-C ) :   1.2431
B(  2-C , 17-C ) :   1.3255 B(  3-S ,  4-C ) :   1.4481 B(  4-C ,  8-C ) :   1.1890
B(  4-C , 10-C ) :   1.2038 B(  5-S ,  6-C ) :   1.2202 B(  6-C , 18-C ) :   1.3048
B(  7-S ,  8-C ) :   1.0455 B(  8-C ,  9-C ) :   1.2905 B(  9-C , 13-C ) :   1.3679
B(  9-C , 14-H ) :   0.9913 B( 10-C , 11-C ) :   1.3053 B( 10-C , 12-H ) :   0.9499
B( 11-C , 13-C ) :   1.3232 B( 11-C , 15-H ) :   1.0109 B( 13-C , 16-H ) :   0.9858
B( 17-C , 19-C ) :   1.3688 B( 17-C , 20-H ) :   0.9767 B( 18-C , 21-C ) :   1.3553
B( 18-C , 22-H ) :   0.9597 B( 19-C , 21-C ) :   1.3406 B( 19-C , 23-H ) :   0.9814
B( 21-C , 24-H ) :   0.9973

FINAL SINGLE POINT ENERGY     -3686.740288247389

DIPOLE MOMENT
-------------
                                X             Y             Z
Electronic contribution:      0.16217       0.13919      -0.00000
Nuclear contribution   :      0.00259       0.06343       0.00000
                        -----------------------------------------
Total Dipole Moment    :      0.16476       0.20262      -0.00000
                        -----------------------------------------
Magnitude (a.u.)       :      0.26115
Magnitude (Debye)      :      0.66379

Rotational constants in cm-1:     0.033206     0.004802     0.004195
Rotational constants in MHz :   995.489951   143.955300   125.768267

                             ****ORCA TERMINATED NORMALLY****
TOTAL RUN TIME: 0 days 6 hours 44 minutes 29 seconds 398 msec
