                         Program Version 5.0.4 -  RELEASE  -
|  1> ! RIJCOSX nofrozencore ReducedPop printbasis
|  2> ! M06L ano-rcc-dzp autoaux
|  3>
|  4> %maxcore 5000
|  5> %basis
|  6> PCDTrimBas overlap
|  7> PCDTrimAuxJ Coulomb
|  8> PCDTrimAuxJK Coulomb
|  9> PCDTrimAuxC Coulomb
| 10> PCDThresh -1
| 11> end
| 12>
| 13> %basis
| 14> newgto Cu "ano-rcc-tzp" end
| 15> newgto S "ano-rcc-tzp" end
| 16> end
| 17>
| 18> %pal
| 19> nprocs 12
| 20> end
| 21>
| 22> % sym SymThresh 1e-2 end
| 23> * xyz -2 2
| 24> Cu -0.23852349109147797 0.18435670957616965 0.15351510057900328
| 25> S -2.339862167284511 -0.24999551154581956 0.2618641567064422
| 26> C -2.631378237627321 1.2001943486307787 1.189757252137626
| 27> S 0.14301041921052957 -1.9288560490372304 -1.1909776313553142
| 28> C 1.7889314351253405 -2.2565481889827317 -1.6795030234045858
| 29> S 0.06835253236476123 2.033005437699206 1.216618392258963
| 30> C -1.6347456540723864 2.1454008359983567 1.5851176440990118
| 31> S 2.239735595400373 0.060706255359320054 -0.3585934576296489
| 32> C 2.7776383057698086 -1.3194153570685478 -1.287623308888863
| 33> C 4.113879530833707 -1.5501545000781707 -1.6629018292652886
| 34> C 2.1815928951290506 -3.3819122921537135 -2.428935183981464
| 35> C 3.5135530700445194 -3.5913798577158134 -2.7906035003358816
| 36> H 1.4214796993772707 -4.097070574095544 -2.727004278050315
| 37> C 4.486484408776967 -2.6720573149993045 -2.4067035842880395
| 38> H 4.867249629298328 -0.8293241926355781 -1.3602146897554928
| 39> H 3.783124713523397 -4.470678509605412 -3.3695993922239267
| 40> H 5.527508064133465 -2.820106587095569 -2.679906589787542
| 41> C -3.954938705201942 1.4409322034688503 1.5688406937050636
| 42> C -2.0410521392002083 3.256958109842599 2.3286147435721904
| 43> C -4.329046900950002 2.5500034549088593 2.305152787706938
| 44> H -4.699723437014534 0.7145975558654433 1.2613117181959566
| 45> C -3.3585875740761257 3.4710691804682026 2.6905425007032036
| 46> H -1.273963000184052 3.965891672231835 2.6216894864255433
| 47> H -5.370255464373209 2.695097976843623 2.576602672990946
| 48> H -3.6265453779880885 4.349934421668971 3.2689916339360177
| 49> *
| 50>
| 51> % eprnmr
| 52> gtensor true
| 53> Nuclei = all H {aiso,adip,aorb,fgrad,rho}
| 54> Nuclei = all Cu {aiso,adip,aorb,fgrad,rho}
| 55> end
| 56>
| 57>                          ****END OF INPUT****

CARTESIAN COORDINATES (ANGSTROEM)
---------------------------------
  Cu    -0.000000    0.000000   -0.338295
  S     -1.726496    0.000000   -1.622096
  C     -0.714668    0.000000   -3.045190
  S     -1.503951    0.000000    1.700634
  C     -0.708754    0.000000    3.257488
  S      1.726496    0.000000   -1.622096
  C      0.714668    0.000000   -3.045190
  S      1.503951    0.000000    1.700634
  C      0.708754    0.000000    3.257488
  C      1.385269    0.000000    4.491698
  C     -1.385269    0.000000    4.491698
  C     -0.696262    0.000000    5.706208
  H     -2.470810    0.000000    4.486726
  C      0.696262    0.000000    5.706208
  H      2.470810    0.000000    4.486726
  H     -1.249293    0.000000    6.641535
  H      1.249293    0.000000    6.641535
  C     -1.372786    0.000000   -4.278207
  C      1.372786    0.000000   -4.278207
  C     -0.696182    0.000000   -5.484296
  H     -2.457507    0.000000   -4.262323
  C      0.696182    0.000000   -5.484296
  H      2.457507    0.000000   -4.262323
  H     -1.250841    0.000000   -6.417669
  H      1.250841    0.000000   -6.417669

 Total Charge           Charge          ....   -2
 Multiplicity           Mult            ....    2
 Number of Electrons    NEL             ....  175
 Basis Dimension        Dim             ....  475

ORBITAL ENERGIES
----------------
                 SPIN UP ORBITALS
  NO   OCC          E(Eh)            E(eV)    Irrep
   0   1.0000    -318.172504     -8657.9140    1-A1
   1   1.0000     -88.020754     -2395.1665    1-B1
   2   1.0000     -88.020750     -2395.1664    2-A1
   3   1.0000     -88.009174     -2394.8514    2-B1
   4   1.0000     -88.009151     -2394.8507    3-A1
   5   1.0000     -38.016411     -1034.4791    4-A1
   6   1.0000     -33.518695      -912.0901    3-B1
   7   1.0000     -33.518308      -912.0795    5-A1
   8   1.0000     -33.507243      -911.7784    1-B2
   9   1.0000      -9.836943      -267.6768    6-A1
  10   1.0000      -9.836631      -267.6683    4-B1
  11   1.0000      -9.827975      -267.4328    7-A1
  12   1.0000      -9.827626      -267.4233    5-B1
  13   1.0000      -9.825177      -267.3567    8-A1
  14   1.0000      -9.824745      -267.3449    6-B1
  15   1.0000      -9.821496      -267.2565    9-A1
  16   1.0000      -9.821064      -267.2448    7-B1
  17   1.0000      -9.817564      -267.1495    8-B1
  18   1.0000      -9.817559      -267.1494   10-A1
  19   1.0000      -9.814653      -267.0703    9-B1
  20   1.0000      -9.814649      -267.0702   11-A1
  21   1.0000      -7.589916      -206.5321   10-B1
  22   1.0000      -7.589908      -206.5319   12-A1
  23   1.0000      -7.577364      -206.1906   11-B1
  24   1.0000      -7.577350      -206.1902   13-A1
  25   1.0000      -5.512982      -150.0159   12-B1
  26   1.0000      -5.512981      -150.0158   14-A1
  27   1.0000      -5.507654      -149.8709   13-B1
  28   1.0000      -5.507653      -149.8709   15-A1
  29   1.0000      -5.505896      -149.8230    1-A2
  30   1.0000      -5.505896      -149.8230    2-B2
  31   1.0000      -5.500524      -149.6769   14-B1
  32   1.0000      -5.500523      -149.6768   16-A1
  33   1.0000      -5.495991      -149.5535   17-A1
  34   1.0000      -5.495990      -149.5535   15-B1
  35   1.0000      -5.493341      -149.4814    2-A2
  36   1.0000      -5.493341      -149.4814    3-B2
  37   1.0000      -4.014888      -109.2507   18-A1
  38   1.0000      -2.534885       -68.9777   16-B1
  39   1.0000      -2.533736       -68.9465   19-A1
  40   1.0000      -2.510608       -68.3171    4-B2
  41   1.0000      -0.594352       -16.1731   20-A1
  42   1.0000      -0.584149       -15.8955   21-A1
  43   1.0000      -0.507856       -13.8195   22-A1
  44   1.0000      -0.500932       -13.6311   23-A1
  45   1.0000      -0.497489       -13.5374   17-B1
  46   1.0000      -0.481987       -13.1155   18-B1
  47   1.0000      -0.417896       -11.3715   19-B1
  48   1.0000      -0.397893       -10.8272   20-B1
  49   1.0000      -0.389644       -10.6028   24-A1
  50   1.0000      -0.381036       -10.3685   25-A1
  51   1.0000      -0.327497        -8.9117   26-A1
  52   1.0000      -0.314369        -8.5544   27-A1
  53   1.0000      -0.303667        -8.2632   21-B1
  54   1.0000      -0.292535        -7.9603   22-B1
  55   1.0000      -0.235113        -6.3977   28-A1
  56   1.0000      -0.225561        -6.1378   29-A1
  57   1.0000      -0.195567        -5.3217   30-A1
  58   1.0000      -0.184026        -5.0076   31-A1
  59   1.0000      -0.179471        -4.8837   23-B1
  60   1.0000      -0.171896        -4.6775   24-B1
  61   1.0000      -0.149354        -4.0641   25-B1
  62   1.0000      -0.139250        -3.7892   26-B1
  63   1.0000      -0.131469        -3.5775   32-A1
  64   1.0000      -0.121911        -3.3174    5-B2
  65   1.0000      -0.114681        -3.1206   33-A1
  66   1.0000      -0.111802        -3.0423    6-B2
  67   1.0000      -0.086092        -2.3427   34-A1
  68   1.0000      -0.071421        -1.9435   27-B1
  69   1.0000      -0.065556        -1.7839   35-A1
  70   1.0000      -0.053817        -1.4644   28-B1
  71   1.0000      -0.043572        -1.1857    7-B2
  72   1.0000      -0.039383        -1.0717   29-B1
  73   1.0000      -0.033317        -0.9066    3-A2
  74   1.0000      -0.032888        -0.8949    8-B2
  75   1.0000      -0.020841        -0.5671   36-A1
  76   1.0000      -0.013176        -0.3585    4-A2
  77   1.0000      -0.005913        -0.1609   37-A1
  78   1.0000      -0.001381        -0.0376    5-A2
  79   1.0000       0.007739         0.2106    9-B2
  80   1.0000       0.021723         0.5911   38-A1
  81   1.0000       0.035229         0.9586   39-A1
  82   1.0000       0.044213         1.2031   30-B1
  83   1.0000       0.052787         1.4364    6-A2
  84   1.0000       0.056187         1.5289    7-A2
  85   1.0000       0.061954         1.6858   10-B2
  86   1.0000       0.086744         2.3604   11-B2
  87   1.0000       0.102713         2.7950   31-B1
  88   0.0000       0.180035         4.8990   40-A1
  89   0.0000       0.183428         4.9913   41-A1
  90   0.0000       0.195882         5.3302   32-B1
  91   0.0000       0.198698         5.4069   33-B1
  92   0.0000       0.199393         5.4258   12-B2

                 SPIN DOWN ORBITALS
  NO   OCC          E(Eh)            E(eV)    Irrep
   0   1.0000    -318.172349     -8657.9098    1-A1
   1   1.0000     -88.020051     -2395.1473    1-B1
   2   1.0000     -88.020046     -2395.1472    2-A1
   3   1.0000     -88.007540     -2394.8069    2-B1
   4   1.0000     -88.007517     -2394.8063    3-A1
   5   1.0000     -38.003415     -1034.1255    4-A1
   6   1.0000     -33.506250      -911.7514    3-B1
   7   1.0000     -33.505932      -911.7428    5-A1
   8   1.0000     -33.503662      -911.6810    1-B2
   9   1.0000      -9.837032      -267.6792    6-A1
  10   1.0000      -9.836719      -267.6707    4-B1
  11   1.0000      -9.828122      -267.4368    7-A1
  12   1.0000      -9.827773      -267.4273    5-B1
  13   1.0000      -9.825173      -267.3566    8-A1
  14   1.0000      -9.824741      -267.3448    6-B1
  15   1.0000      -9.821472      -267.2558    9-A1
  16   1.0000      -9.821041      -267.2441    7-B1
  17   1.0000      -9.817552      -267.1492    8-B1
  18   1.0000      -9.817547      -267.1490   10-A1
  19   1.0000      -9.814576      -267.0682    9-B1
  20   1.0000      -9.814572      -267.0681   11-A1
  21   1.0000      -7.589421      -206.5187   10-B1
  22   1.0000      -7.589414      -206.5184   12-A1
  23   1.0000      -7.576246      -206.1601   11-B1
  24   1.0000      -7.576232      -206.1598   13-A1
  25   1.0000      -5.512394      -149.9999   12-B1
  26   1.0000      -5.512394      -149.9999   14-A1
  27   1.0000      -5.506090      -149.8283   13-B1
  28   1.0000      -5.506090      -149.8283   15-A1
  29   1.0000      -5.505361      -149.8085    1-A2
  30   1.0000      -5.505361      -149.8085    2-B2
  31   1.0000      -5.499121      -149.6387   14-B1
  32   1.0000      -5.499121      -149.6387   16-A1
  33   1.0000      -5.492555      -149.4600   17-A1
  34   1.0000      -5.492554      -149.4600   15-B1
  35   1.0000      -5.492091      -149.4474    2-A2
  36   1.0000      -5.492091      -149.4474    3-B2
  37   1.0000      -3.987559      -108.5070   18-A1
  38   1.0000      -2.500934       -68.0539    4-B2
  39   1.0000      -2.500634       -68.0457   16-B1
  40   1.0000      -2.499715       -68.0207   19-A1
  41   1.0000      -0.594210       -16.1693   20-A1
  42   1.0000      -0.583621       -15.8811   21-A1
  43   1.0000      -0.507091       -13.7986   22-A1
  44   1.0000      -0.498973       -13.5777   23-A1
  45   1.0000      -0.496805       -13.5187   17-B1
  46   1.0000      -0.480802       -13.0833   18-B1
  47   1.0000      -0.415398       -11.3036   19-B1
  48   1.0000      -0.391874       -10.6634   20-B1
  49   1.0000      -0.387282       -10.5385   24-A1
  50   1.0000      -0.376737       -10.2515   25-A1
  51   1.0000      -0.326631        -8.8881   26-A1
  52   1.0000      -0.312183        -8.4949   27-A1
  53   1.0000      -0.302391        -8.2285   21-B1
  54   1.0000      -0.289614        -7.8808   22-B1
  55   1.0000      -0.234607        -6.3840   28-A1
  56   1.0000      -0.224636        -6.1127   29-A1
  57   1.0000      -0.195058        -5.3078   30-A1
  58   1.0000      -0.182676        -4.9709   31-A1
  59   1.0000      -0.178996        -4.8707   23-B1
  60   1.0000      -0.171140        -4.6570   24-B1
  61   1.0000      -0.148679        -4.0458   25-B1
  62   1.0000      -0.138063        -3.7569   26-B1
  63   1.0000      -0.130133        -3.5411   32-A1
  64   1.0000      -0.121807        -3.3145    5-B2
  65   1.0000      -0.113661        -3.0929   33-A1
  66   1.0000      -0.111592        -3.0366    6-B2
  67   1.0000      -0.084691        -2.3046   34-A1
  68   1.0000      -0.068378        -1.8607   27-B1
  69   1.0000      -0.063235        -1.7207   35-A1
  70   1.0000      -0.045534        -1.2391   28-B1
  71   1.0000      -0.042441        -1.1549    7-B2
  72   1.0000      -0.031353        -0.8532    8-B2
  73   1.0000      -0.031014        -0.8439    3-A2
  74   1.0000      -0.017425        -0.4742   29-B1
  75   1.0000      -0.015303        -0.4164   36-A1
  76   1.0000      -0.011950        -0.3252    4-A2
  77   1.0000       0.002119         0.0577   37-A1
  78   1.0000       0.005455         0.1484    5-A2
  79   1.0000       0.017842         0.4855    9-B2
  80   1.0000       0.035517         0.9665   38-A1
  81   1.0000       0.044855         1.2206   39-A1
  82   1.0000       0.057151         1.5552    6-A2
  83   1.0000       0.059808         1.6275   30-B1
  84   1.0000       0.061643         1.6774    7-A2
  85   1.0000       0.064055         1.7430   10-B2
  86   1.0000       0.091152         2.4804   11-B2
  87   0.0000       0.130284         3.5452   31-B1
  88   0.0000       0.180442         4.9101   40-A1
  89   0.0000       0.184590         5.0229   41-A1
  90   0.0000       0.196603         5.3499   32-B1
  91   0.0000       0.199453         5.4274   12-B2

MULLIKEN ATOMIC CHARGES AND SPIN POPULATIONS
--------------------------------------------
   0 Cu:    0.187798    0.318074
   1 S :   -0.438280    0.119903
   2 C :    0.016544   -0.005305
   3 S :   -0.441431    0.236758
   4 C :    0.035254   -0.009403
   5 S :   -0.438280    0.119903
   6 C :    0.016544   -0.005305
   7 S :   -0.441431    0.236758
   8 C :    0.035254   -0.009403
   9 C :   -0.114288   -0.002051
  10 C :   -0.114288   -0.002051
  11 C :   -0.136901   -0.001335
  12 H :    0.060074    0.001364
  13 C :   -0.136901   -0.001335
  14 H :    0.060074    0.001364
  15 H :    0.031457    0.001508
  16 H :    0.031457    0.001508
  17 C :   -0.065736   -0.001918
  18 C :   -0.065736   -0.001918
  19 C :   -0.139309   -0.001145
  20 H :    0.067200    0.002157
  21 C :   -0.139309   -0.001145
  22 H :    0.067200    0.002157
  23 H :    0.031516    0.000431
  24 H :    0.031516    0.000431
Sum of atomic charges         :   -2.0000000

LOEWDIN ATOMIC CHARGES AND SPIN POPULATIONS
-------------------------------------------
   0 Cu:   -0.875997    0.365769
   1 S :    0.062526    0.084742
   2 C :   -0.013233    0.001593
   3 S :   -0.059934    0.204192
   4 C :   -0.054669    0.008107
   5 S :    0.062526    0.084742
   6 C :   -0.013233    0.001593
   7 S :   -0.059934    0.204192
   8 C :   -0.054669    0.008107
   9 C :    0.307294    0.004548
  10 C :    0.307294    0.004548
  11 C :    0.309673   -0.000386
  12 H :   -0.444295    0.007069
  13 C :    0.309673   -0.000386
  14 H :   -0.444295    0.007069
  15 H :   -0.421201    0.000309
  16 H :   -0.421201    0.000309
  17 C :    0.305987    0.001769
  18 C :    0.305987    0.001769
  19 C :    0.313693   -0.000588
  20 H :   -0.451943    0.005907
  21 C :    0.313693   -0.000588
  22 H :   -0.451943    0.005907
  23 H :   -0.415901   -0.000146
  24 H :   -0.415901   -0.000146

  Mayer bond orders larger than 0.100000
B(  0-Cu,  1-S ) :   0.8566 B(  0-Cu,  3-S ) :   0.5131 B(  0-Cu,  5-S ) :   0.8566
B(  0-Cu,  7-S ) :   0.5131 B(  1-S ,  2-C ) :   1.1591 B(  2-C ,  6-C ) :   1.2543
B(  2-C , 17-C ) :   1.3125 B(  3-S ,  4-C ) :   1.1947 B(  4-C ,  8-C ) :   1.2284
B(  4-C , 10-C ) :   1.3244 B(  5-S ,  6-C ) :   1.1591 B(  6-C , 18-C ) :   1.3125
B(  7-S ,  8-C ) :   1.1947 B(  8-C ,  9-C ) :   1.3244 B(  9-C , 13-C ) :   1.3565
B(  9-C , 14-H ) :   0.9736 B( 10-C , 11-C ) :   1.3565 B( 10-C , 12-H ) :   0.9736
B( 11-C , 13-C ) :   1.3446 B( 11-C , 15-H ) :   0.9885 B( 13-C , 16-H ) :   0.9885
B( 17-C , 19-C ) :   1.3700 B( 17-C , 20-H ) :   0.9667 B( 18-C , 21-C ) :   1.3700
B( 18-C , 22-H ) :   0.9667 B( 19-C , 21-C ) :   1.3318 B( 19-C , 23-H ) :   0.9879
B( 21-C , 24-H ) :   0.9879

FINAL SINGLE POINT ENERGY     -3686.897189956226

DIPOLE MOMENT
-------------
                                X             Y             Z
Electronic contribution:      0.00000      -0.00000      -3.35172
Nuclear contribution   :     -0.00000       0.00000       2.59198
                        -----------------------------------------
Total Dipole Moment    :      0.00000      -0.00000      -0.75975
                        -----------------------------------------
Magnitude (a.u.)       :      0.75975
Magnitude (Debye)      :      1.93112

Rotational constants in cm-1:     0.033320     0.004793     0.004190
Rotational constants in MHz :   998.902250   143.684496   125.615641

                             ****ORCA TERMINATED NORMALLY****
TOTAL RUN TIME: 0 days 6 hours 59 minutes 26 seconds 431 msec
