                         Program Version 5.0.4 -  RELEASE  -
|  1> ! RIJCOSX nofrozencore ReducedPop printbasis
|  2> ! M06L ano-rcc-dzp autoaux
|  3>
|  4> %maxcore 5000
|  5> %basis
|  6> PCDTrimBas overlap
|  7> PCDTrimAuxJ Coulomb
|  8> PCDTrimAuxJK Coulomb
|  9> PCDTrimAuxC Coulomb
| 10> PCDThresh -1
| 11> end
| 12>
| 13> %basis
| 14> newgto Cu "ano-rcc-tzp" end
| 15> newgto S "ano-rcc-tzp" end
| 16> end
| 17>
| 18> %pal
| 19> nprocs 12
| 20> end
| 21>
| 22> % sym SymThresh 1e-2 end
| 23> * xyz -2 2
| 24> Cu 9.911142518843351e-06 -1.2435182401202299e-05 1.7707322270755873e-06
| 25> S -1.1002655163961907 -0.5969782160035808 1.9506932122239535
| 26> C -0.23994859829529427 0.24136967442804838 3.213093767389869
| 27> S -1.4172148418391262 -1.3141051727857056 -1.2793753939902672
| 28> C -0.8701409651770698 -1.0820123789272988 -2.91752874656717
| 29> S 1.4173046615682032 1.3139924789451947 1.2793914412510752
| 30> C 0.8691467536931483 1.0832597831619195 2.917351119990642
| 31> S 1.1003565750180826 0.5968639677652697 -1.9506769436216174
| 32> C 0.23892031725896426 -0.24007952425392365 -3.2132774808584283
| 33> C 0.6631592747864385 -0.14074806868754208 -4.546646787551839
| 34> C -1.4842662887171354 -1.770722480037527 -3.974049938317033
| 35> C -1.0627463245793949 -1.6361873092827082 -5.291176839681244
| 36> H -2.404073069884125 -2.315829387332658 -3.751917945935567
| 37> C 0.022450866561031343 -0.8124085191145892 -5.580553460620254
| 38> H 1.4344814329068603 0.5976457824336051 -4.775414078428258
| 39> H -1.752197998120323 -1.954146281512698 -6.113769887453995
| 40> H 0.19678526737491742 -0.4746692883098775 -6.633480676150989
| 41> C -0.662347276562328 0.13972894600685992 4.546790905023925
| 42> C 1.485063612259522 1.7697224399758142 3.9741933434903185
| 43> C -0.02113454294524746 0.8107569714519296 5.580788635994163
| 44> H -1.4393620511509833 -0.5915222322999131 4.774542103477187
| 45> C 1.0640837093730313 1.634509336857446 5.291415777861135
| 46> H 2.3991132585158783 2.3220526338482435 3.7510327770264498
| 47> H -0.20843040008683342 0.4892784818198362 6.631400494882338
| 48> H 1.7406018016745937 1.9686940763095504 6.111698449175716
| 49> *
| 50>
| 51> % eprnmr
| 52> gtensor true
| 53> Nuclei = all H {aiso,adip,aorb,fgrad,rho}
| 54> Nuclei = all Cu {aiso,adip,aorb,fgrad,rho}
| 55> end
| 56>
| 57>                          ****END OF INPUT****

CARTESIAN COORDINATES (ANGSTROEM)
---------------------------------
  Cu    -0.000016    0.000003    0.000000
  S      0.318128    1.631200   -1.615597
  C      0.581124    3.097663   -0.711747
  S     -0.318272   -1.631172   -1.615597
  C     -0.579521   -3.097974   -0.711747
  S      0.318128    1.631200    1.615597
  C      0.581124    3.097663    0.711747
  S     -0.318272   -1.631172    1.615597
  C     -0.579521   -3.097974    0.711747
  C     -0.851741   -4.301987    1.378053
  C     -0.851741   -4.301987   -1.378053
  C     -1.092831   -5.488516   -0.696420
  H     -0.730512   -4.314889   -2.463249
  C     -1.092831   -5.488516    0.696420
  H     -0.730512   -4.314889    2.463249
  H     -1.004629   -6.457045   -1.250748
  H     -1.004629   -6.457045    1.250748
  C      0.850466    4.302234   -1.378053
  C      0.850466    4.302234    1.378053
  C      1.090729    5.488924   -0.696420
  H      0.738310    4.313377   -2.463249
  C      1.090729    5.488924    0.696420
  H      0.738310    4.313377    2.463249
  H      1.023045    6.453473   -1.250748
  H      1.023045    6.453473    1.250748

 Total Charge           Charge          ....   -2
 Multiplicity           Mult            ....    2
 Number of Electrons    NEL             ....  175
 Basis Dimension        Dim             ....  475

ORBITAL ENERGIES
----------------
                 SPIN UP ORBITALS
  NO   OCC          E(Eh)            E(eV)    Irrep
   0   1.0000    -318.182584     -8658.1883    1-A'
   1   1.0000     -88.015830     -2395.0325    1-A"
   2   1.0000     -88.015827     -2395.0324    2-A'
   3   1.0000     -88.015761     -2395.0306    2-A"
   4   1.0000     -88.015742     -2395.0301    3-A'
   5   1.0000     -38.027791     -1034.7888    4-A'
   6   1.0000     -33.530931      -912.4230    3-A"
   7   1.0000     -33.530078      -912.3998    5-A'
   8   1.0000     -33.516312      -912.0252    6-A'
   9   1.0000      -9.834101      -267.5995    7-A'
  10   1.0000      -9.833989      -267.5964    8-A'
  11   1.0000      -9.833771      -267.5905    4-A"
  12   1.0000      -9.833659      -267.5875    5-A"
  13   1.0000      -9.827576      -267.4219    9-A'
  14   1.0000      -9.827147      -267.4103    6-A"
  15   1.0000      -9.827123      -267.4096   10-A'
  16   1.0000      -9.826694      -267.3979    7-A"
  17   1.0000      -9.818205      -267.1669    8-A"
  18   1.0000      -9.818201      -267.1668   11-A'
  19   1.0000      -9.818047      -267.1626    9-A"
  20   1.0000      -9.818042      -267.1625   12-A'
  21   1.0000      -7.584509      -206.3850   10-A"
  22   1.0000      -7.584500      -206.3847   13-A'
  23   1.0000      -7.584443      -206.3832   11-A"
  24   1.0000      -7.584433      -206.3829   14-A'
  25   1.0000      -5.507712      -149.8725   12-A"
  26   1.0000      -5.507711      -149.8724   15-A'
  27   1.0000      -5.507645      -149.8706   13-A"
  28   1.0000      -5.507644      -149.8706   16-A'
  29   1.0000      -5.502412      -149.7282   14-A"
  30   1.0000      -5.502412      -149.7282   17-A'
  31   1.0000      -5.502350      -149.7265   15-A"
  32   1.0000      -5.502349      -149.7265   18-A'
  33   1.0000      -5.500578      -149.6783   16-A"
  34   1.0000      -5.500578      -149.6783   19-A'
  35   1.0000      -5.500510      -149.6765   17-A"
  36   1.0000      -5.500510      -149.6765   20-A'
  37   1.0000      -4.025393      -109.5365   21-A'
  38   1.0000      -2.546837       -69.3030   18-A"
  39   1.0000      -2.545291       -69.2609   22-A'
  40   1.0000      -2.517870       -68.5147   23-A'
  41   1.0000      -0.590587       -16.0707   24-A'
  42   1.0000      -0.590459       -16.0672   25-A'
  43   1.0000      -0.505092       -13.7443   26-A'
  44   1.0000      -0.503976       -13.7139   27-A'
  45   1.0000      -0.490666       -13.3517   19-A"
  46   1.0000      -0.490408       -13.3447   20-A"
  47   1.0000      -0.410205       -11.1622   21-A"
  48   1.0000      -0.407576       -11.0907   22-A"
  49   1.0000      -0.387958       -10.5569   28-A'
  50   1.0000      -0.381246       -10.3742   29-A'
  51   1.0000      -0.322384        -8.7725   30-A'
  52   1.0000      -0.319776        -8.7016   31-A'
  53   1.0000      -0.297937        -8.1073   23-A"
  54   1.0000      -0.294311        -8.0086   24-A"
  55   1.0000      -0.230548        -6.2735   32-A'
  56   1.0000      -0.225202        -6.1281   33-A'
  57   1.0000      -0.191076        -5.1994   34-A'
  58   1.0000      -0.190214        -5.1760   35-A'
  59   1.0000      -0.175579        -4.7778   25-A"
  60   1.0000      -0.172894        -4.7047   26-A"
  61   1.0000      -0.145016        -3.9461   27-A"
  62   1.0000      -0.141639        -3.8542   28-A"
  63   1.0000      -0.133866        -3.6427   36-A'
  64   1.0000      -0.120930        -3.2907   37-A'
  65   1.0000      -0.115082        -3.1315   38-A'
  66   1.0000      -0.110633        -3.0105   39-A'
  67   1.0000      -0.087402        -2.3783   40-A'
  68   1.0000      -0.070492        -1.9182   29-A"
  69   1.0000      -0.066451        -1.8082   30-A"
  70   1.0000      -0.063016        -1.7147   41-A'
  71   1.0000      -0.039829        -1.0838   42-A'
  72   1.0000      -0.037685        -1.0255   43-A'
  73   1.0000      -0.032556        -0.8859   31-A"
  74   1.0000      -0.029835        -0.8119   44-A'
  75   1.0000      -0.027045        -0.7359   32-A"
  76   1.0000      -0.019748        -0.5374   33-A"
  77   1.0000      -0.003648        -0.0993   34-A"
  78   1.0000      -0.001826        -0.0497   45-A'
  79   1.0000       0.000296         0.0080   46-A'
  80   1.0000       0.017238         0.4691   47-A'
  81   1.0000       0.017827         0.4851   48-A'
  82   1.0000       0.033484         0.9112   35-A"
  83   1.0000       0.049140         1.3372   36-A"
  84   1.0000       0.051170         1.3924   37-A"
  85   1.0000       0.061113         1.6630   49-A'
  86   1.0000       0.086105         2.3430   50-A'
  87   1.0000       0.103864         2.8263   38-A"
  88   0.0000       0.180369         4.9081   51-A'
  89   0.0000       0.180532         4.9125   52-A'
  90   0.0000       0.196528         5.3478   39-A"
  91   0.0000       0.196712         5.3528   40-A"
  92   0.0000       0.197908         5.3854   53-A'

                 SPIN DOWN ORBITALS
  NO   OCC          E(Eh)            E(eV)    Irrep
   0   1.0000    -318.182410     -8658.1836    1-A'
   1   1.0000     -88.014761     -2395.0034    1-A"
   2   1.0000     -88.014758     -2395.0033    2-A'
   3   1.0000     -88.014691     -2395.0015    2-A"
   4   1.0000     -88.014673     -2395.0010    3-A'
   5   1.0000     -38.011920     -1034.3569    4-A'
   6   1.0000     -33.515769      -912.0104    3-A"
   7   1.0000     -33.514949      -911.9881    5-A'
   8   1.0000     -33.511986      -911.9075    6-A'
   9   1.0000      -9.834215      -267.6026    7-A'
  10   1.0000      -9.834103      -267.5996    8-A'
  11   1.0000      -9.833885      -267.5936    4-A"
  12   1.0000      -9.833773      -267.5906    5-A"
  13   1.0000      -9.827555      -267.4214    9-A'
  14   1.0000      -9.827125      -267.4097    6-A"
  15   1.0000      -9.827102      -267.4090   10-A'
  16   1.0000      -9.826672      -267.3974    7-A"
  17   1.0000      -9.818144      -267.1653    8-A"
  18   1.0000      -9.818140      -267.1652   11-A'
  19   1.0000      -9.817987      -267.1610    9-A"
  20   1.0000      -9.817982      -267.1609   12-A'
  21   1.0000      -7.583778      -206.3651   10-A"
  22   1.0000      -7.583770      -206.3649   13-A'
  23   1.0000      -7.583712      -206.3633   11-A"
  24   1.0000      -7.583702      -206.3630   14-A'
  25   1.0000      -5.506781      -149.8471   12-A"
  26   1.0000      -5.506780      -149.8471   15-A'
  27   1.0000      -5.506714      -149.8453   13-A"
  28   1.0000      -5.506713      -149.8453   16-A'
  29   1.0000      -5.500176      -149.6674   14-A"
  30   1.0000      -5.500176      -149.6674   17-A'
  31   1.0000      -5.500112      -149.6657   15-A"
  32   1.0000      -5.500112      -149.6657   18-A'
  33   1.0000      -5.499763      -149.6562   16-A"
  34   1.0000      -5.499762      -149.6561   19-A'
  35   1.0000      -5.499694      -149.6543   17-A"
  36   1.0000      -5.499694      -149.6543   20-A'
  37   1.0000      -3.991662      -108.6186   21-A'
  38   1.0000      -2.506155       -68.1959   22-A'
  39   1.0000      -2.504775       -68.1584   18-A"
  40   1.0000      -2.503221       -68.1161   23-A'
  41   1.0000      -0.590217       -16.0606   24-A'
  42   1.0000      -0.590099       -16.0574   25-A'
  43   1.0000      -0.503752       -13.7078   26-A'
  44   1.0000      -0.502709       -13.6794   27-A'
  45   1.0000      -0.489597       -13.3226   19-A"
  46   1.0000      -0.489364       -13.3163   20-A"
  47   1.0000      -0.406209       -11.0535   21-A"
  48   1.0000      -0.403480       -10.9793   22-A"
  49   1.0000      -0.384727       -10.4689   28-A'
  50   1.0000      -0.378073       -10.2879   29-A'
  51   1.0000      -0.321192        -8.7401   30-A'
  52   1.0000      -0.318268        -8.6605   31-A'
  53   1.0000      -0.296134        -8.0582   23-A"
  54   1.0000      -0.292067        -7.9475   24-A"
  55   1.0000      -0.229975        -6.2579   32-A'
  56   1.0000      -0.224517        -6.1094   33-A'
  57   1.0000      -0.190094        -5.1727   34-A'
  58   1.0000      -0.189317        -5.1516   35-A'
  59   1.0000      -0.175090        -4.7644   25-A"
  60   1.0000      -0.172114        -4.6835   26-A"
  61   1.0000      -0.144299        -3.9266   27-A"
  62   1.0000      -0.139995        -3.8095   28-A"
  63   1.0000      -0.132753        -3.6124   36-A'
  64   1.0000      -0.120489        -3.2787   37-A'
  65   1.0000      -0.114721        -3.1217   38-A'
  66   1.0000      -0.109989        -2.9930   39-A'
  67   1.0000      -0.085995        -2.3400   40-A'
  68   1.0000      -0.069059        -1.8792   29-A"
  69   1.0000      -0.061321        -1.6686   41-A'
  70   1.0000      -0.052093        -1.4175   30-A"
  71   1.0000      -0.037626        -1.0239   42-A'
  72   1.0000      -0.036785        -1.0010   43-A'
  73   1.0000      -0.023738        -0.6459   31-A"
  74   1.0000      -0.023129        -0.6294   44-A'
  75   1.0000      -0.018891        -0.5140   32-A"
  76   1.0000      -0.003738        -0.1017   33-A"
  77   1.0000       0.005961         0.1622   34-A"
  78   1.0000       0.009030         0.2457   45-A'
  79   1.0000       0.012520         0.3407   46-A'
  80   1.0000       0.024672         0.6714   47-A'
  81   1.0000       0.032965         0.8970   48-A'
  82   1.0000       0.041786         1.1371   35-A"
  83   1.0000       0.051995         1.4149   36-A"
  84   1.0000       0.056772         1.5449   37-A"
  85   1.0000       0.062966         1.7134   49-A'
  86   1.0000       0.090284         2.4567   50-A'
  87   0.0000       0.136905         3.7254   38-A"
  88   0.0000       0.181324         4.9341   51-A'
  89   0.0000       0.181486         4.9385   52-A'
  90   0.0000       0.197916         5.3856   53-A'
  91   0.0000       0.198125         5.3913   39-A"

MULLIKEN ATOMIC CHARGES AND SPIN POPULATIONS
--------------------------------------------
   0 Cu:    0.141277    0.375287
   1 S :   -0.422026    0.162988
   2 C :    0.026545   -0.007485
   3 S :   -0.421594    0.162905
   4 C :    0.027045   -0.007480
   5 S :   -0.422026    0.162988
   6 C :    0.026545   -0.007485
   7 S :   -0.421594    0.162905
   8 C :    0.027045   -0.007480
   9 C :   -0.082158   -0.001369
  10 C :   -0.082158   -0.001369
  11 C :   -0.126504   -0.001041
  12 H :    0.062084    0.001954
  13 C :   -0.126504   -0.001041
  14 H :    0.062084    0.001954
  15 H :    0.005704    0.001175
  16 H :    0.005704    0.001175
  17 C :   -0.083397   -0.001406
  18 C :   -0.083397   -0.001406
  19 C :   -0.128017   -0.001016
  20 H :    0.062515    0.001968
  21 C :   -0.128017   -0.001016
  22 H :    0.062515    0.001968
  23 H :    0.009164    0.001163
  24 H :    0.009164    0.001163
Sum of atomic charges         :   -2.0000000

LOEWDIN ATOMIC CHARGES AND SPIN POPULATIONS
-------------------------------------------
   0 Cu:   -0.893725    0.442112
   1 S :    0.010286    0.124114
   2 C :   -0.038782    0.005143
   3 S :    0.010385    0.124067
   4 C :   -0.038877    0.005137
   5 S :    0.010286    0.124114
   6 C :   -0.038782    0.005143
   7 S :    0.010385    0.124067
   8 C :   -0.038877    0.005137
   9 C :    0.298483    0.004005
  10 C :    0.298483    0.004005
  11 C :    0.289365   -0.000219
  12 H :   -0.443632    0.006202
  13 C :    0.289365   -0.000219
  14 H :   -0.443632    0.006202
  15 H :   -0.392424    0.000253
  16 H :   -0.392424    0.000253
  17 C :    0.299678    0.003988
  18 C :    0.299678    0.003988
  19 C :    0.292584   -0.000205
  20 H :   -0.444122    0.006214
  21 C :    0.292584   -0.000205
  22 H :   -0.444122    0.006214
  23 H :   -0.396083    0.000245
  24 H :   -0.396083    0.000245

  Mayer bond orders larger than 0.100000
B(  0-Cu,  1-S ) :   0.7015 B(  0-Cu,  3-S ) :   0.7013 B(  0-Cu,  5-S ) :   0.7015
B(  0-Cu,  7-S ) :   0.7013 B(  1-S ,  2-C ) :   1.1853 B(  2-C ,  6-C ) :   1.2416
B(  2-C , 17-C ) :   1.3187 B(  3-S ,  4-C ) :   1.1854 B(  4-C ,  8-C ) :   1.2412
B(  4-C , 10-C ) :   1.3188 B(  5-S ,  6-C ) :   1.1853 B(  6-C , 18-C ) :   1.3187
B(  7-S ,  8-C ) :   1.1854 B(  8-C ,  9-C ) :   1.3188 B(  9-C , 13-C ) :   1.3609
B(  9-C , 14-H ) :   0.9714 B( 10-C , 11-C ) :   1.3609 B( 10-C , 12-H ) :   0.9714
B( 11-C , 13-C ) :   1.3359 B( 11-C , 15-H ) :   1.0033 B( 13-C , 16-H ) :   1.0033
B( 17-C , 19-C ) :   1.3612 B( 17-C , 20-H ) :   0.9711 B( 18-C , 21-C ) :   1.3612
B( 18-C , 22-H ) :   0.9711 B( 19-C , 21-C ) :   1.3362 B( 19-C , 23-H ) :   1.0015
B( 21-C , 24-H ) :   1.0015

FINAL SINGLE POINT ENERGY     -3686.914928381691

DIPOLE MOMENT
-------------
                                X             Y             Z
Electronic contribution:     -0.03650       0.02317       0.00000
Nuclear contribution   :      0.04927      -0.00956       0.00000
                        -----------------------------------------
Total Dipole Moment    :      0.01277       0.01361       0.00000
                        -----------------------------------------
Magnitude (a.u.)       :      0.01867
Magnitude (Debye)      :      0.04745

Rotational constants in cm-1:     0.033401     0.004803     0.004200
Rotational constants in MHz :  1001.339035   144.004803   125.919615

                             ****ORCA TERMINATED NORMALLY****
TOTAL RUN TIME: 0 days 6 hours 37 minutes 40 seconds 238 msec
