                         Program Version 5.0.4 -  RELEASE  -
|  1> ! RIJCOSX nofrozencore ReducedPop printbasis
|  2> ! M06L ano-rcc-dzp autoaux
|  3>
|  4> %maxcore 5000
|  5> %basis
|  6> PCDTrimBas overlap
|  7> PCDTrimAuxJ Coulomb
|  8> PCDTrimAuxJK Coulomb
|  9> PCDTrimAuxC Coulomb
| 10> PCDThresh -1
| 11> end
| 12>
| 13> %basis
| 14> newgto Cu "ano-rcc-tzp" end
| 15> newgto S "ano-rcc-tzp" end
| 16> end
| 17>
| 18> %pal
| 19> nprocs 12
| 20> end
| 21>
| 22> % sym SymThresh 1e-2 end
| 23> * xyz -2 2
| 24> Cu 8.034076432843256e-07 -3.218727122264307e-05 -6.960125076030405e-05
| 25> S 1.8160587119044937 0.07193585826299055 1.45575534006122
| 26> C 1.1996218276747885 0.8682881116936919 2.751091586763989
| 27> S 1.2058853236181488 -1.1381463516519195 -1.618931196947164
| 28> C 0.07489932517966919 -1.3723231140173675 -2.9384186462111392
| 29> S -1.1710058707966111 1.143777851713736 1.656156387167281
| 30> C -0.040110197032898934 1.312970185290362 2.8338977754756036
| 31> S -1.8354138427120072 -0.046243643665231704 -1.4135837895741117
| 32> C -1.2740054582926694 -0.88890373102586 -2.849240682820213
| 33> C -2.1502312671516464 -1.0958954457501955 -3.9272435668172414
| 34> C 0.48483051204651084 -2.0413662957893757 -4.103892109888597
| 35> C -0.4046321515859821 -2.2313523512206364 -5.154286156102902
| 36> H 1.5052001728517275 -2.4053007890975713 -4.167548709788013
| 37> C -1.7160472625227492 -1.7615843812379055 -5.068057389388941
| 38> H -3.168182027360269 -0.7274512012273029 -3.85202704854072
| 39> H -0.08163463541950618 -2.749585380915422 -6.053138699125199
| 40> H -2.3964645059079794 -1.920108162961112 -5.900341045553242
| 41> C 1.9318605219638378 1.1517205887011672 3.892768083736873
| 42> C -0.28551531187988927 1.947495120813055 4.041788934606615
| 43> C 1.7156250498959822 1.7868037955071854 5.12273970647968
| 44> H 2.9421173873028197 0.7692595776627885 3.7814887096779097
| 45> C 0.42678998162427617 2.2495067508915536 5.209715220117937
| 46> H -1.3137345685591668 2.2960899645131017 4.066384613427372
| 47> H 2.5474613768220746 1.8430253566173531 5.840278780583274
| 48> H -0.0887087990288959 2.789231394948738 6.017734935588072
| 49> *
| 50>
| 51> % eprnmr
| 52> gtensor true
| 53> Nuclei = all H {aiso,adip,aorb,fgrad,rho}
| 54> Nuclei = all Cu {aiso,adip,aorb,fgrad,rho}
| 55> end
| 56>
| 57>                          ****END OF INPUT****

CARTESIAN COORDINATES (ANGSTROEM)
---------------------------------
  Cu     0.000000    0.000000   -0.000075
  S      1.589934    0.000000    1.701326
  C      0.659836    0.000000    3.053459
  S      1.618944    0.000000   -1.657953
  C      0.717842    0.000000   -3.164175
  S     -1.589934    0.000000    1.701326
  C     -0.659836    0.000000    3.053459
  S     -1.618944    0.000000   -1.657953
  C     -0.717842    0.000000   -3.164175
  C     -1.402558    0.000000   -4.390761
  C      1.402558    0.000000   -4.390761
  C      0.697840    0.000000   -5.588764
  H      2.487731    0.000000   -4.384440
  C     -0.697840    0.000000   -5.588764
  H     -2.487731    0.000000   -4.384440
  H      1.231849    0.000000   -6.535149
  H     -1.231849    0.000000   -6.535149
  C      1.180277    0.000000    4.337994
  C     -1.180277    0.000000    4.337994
  C      0.686067    0.000000    5.648924
  H      2.265207    0.000000    4.290603
  C     -0.686067    0.000000    5.648924
  H     -2.265207    0.000000    4.290603
  H      1.403227    0.000000    6.482973
  H     -1.403227    0.000000    6.482973

 Total Charge           Charge          ....   -2
 Multiplicity           Mult            ....    2
 Number of Electrons    NEL             ....  175
 Basis Dimension        Dim             ....  475

ORBITAL ENERGIES
----------------
                 SPIN UP ORBITALS
  NO   OCC          E(Eh)            E(eV)    Irrep
   0   1.0000    -318.183151     -8658.2037    1-A1
   1   1.0000     -88.016648     -2395.0548    1-B1
   2   1.0000     -88.016639     -2395.0545    2-A1
   3   1.0000     -88.009552     -2394.8617    2-B1
   4   1.0000     -88.009528     -2394.8610    3-A1
   5   1.0000     -38.028312     -1034.8030    4-A1
   6   1.0000     -33.531449      -912.4371    3-B1
   7   1.0000     -33.530649      -912.4154    5-A1
   8   1.0000     -33.516849      -912.0398    1-B2
   9   1.0000      -9.836928      -267.6764    6-A1
  10   1.0000      -9.836632      -267.6684    4-B1
  11   1.0000      -9.825854      -267.3751    7-A1
  12   1.0000      -9.825435      -267.3637    5-B1
  13   1.0000      -9.822884      -267.2943    8-A1
  14   1.0000      -9.822369      -267.2802    6-B1
  15   1.0000      -9.820070      -267.2177    7-B1
  16   1.0000      -9.820066      -267.2176    9-A1
  17   1.0000      -9.811095      -266.9735   10-A1
  18   1.0000      -9.810256      -266.9506    8-B1
  19   1.0000      -9.800425      -266.6831    9-B1
  20   1.0000      -9.800420      -266.6830   11-A1
  21   1.0000      -7.585024      -206.3990   10-B1
  22   1.0000      -7.585015      -206.3988   12-A1
  23   1.0000      -7.581444      -206.3016   11-B1
  24   1.0000      -7.581420      -206.3009   13-A1
  25   1.0000      -5.508300      -149.8885   12-B1
  26   1.0000      -5.508300      -149.8885   14-A1
  27   1.0000      -5.503916      -149.7692   13-B1
  28   1.0000      -5.503915      -149.7691   15-A1
  29   1.0000      -5.502948      -149.7428   14-B1
  30   1.0000      -5.502947      -149.7428   16-A1
  31   1.0000      -5.501079      -149.6920    1-A2
  32   1.0000      -5.501079      -149.6920    2-B2
  33   1.0000      -5.499231      -149.6417   15-B1
  34   1.0000      -5.499231      -149.6417   17-A1
  35   1.0000      -5.497571      -149.5965    2-A2
  36   1.0000      -5.497570      -149.5965    3-B2
  37   1.0000      -4.025946      -109.5516   18-A1
  38   1.0000      -2.547274       -69.3148   16-B1
  39   1.0000      -2.545952       -69.2789   19-A1
  40   1.0000      -2.518454       -68.5306    4-B2
  41   1.0000      -0.608049       -16.5459   20-A1
  42   1.0000      -0.589558       -16.0427   21-A1
  43   1.0000      -0.527746       -14.3607   22-A1
  44   1.0000      -0.502503       -13.6738   23-A1
  45   1.0000      -0.492543       -13.4028   17-B1
  46   1.0000      -0.485452       -13.2098   18-B1
  47   1.0000      -0.412861       -11.2345   19-B1
  48   1.0000      -0.408397       -11.1131   20-B1
  49   1.0000      -0.401228       -10.9180   24-A1
  50   1.0000      -0.384422       -10.4606   25-A1
  51   1.0000      -0.322931        -8.7874   26-A1
  52   1.0000      -0.319416        -8.6918   27-A1
  53   1.0000      -0.299981        -8.1629   21-B1
  54   1.0000      -0.295329        -8.0363   22-B1
  55   1.0000      -0.236503        -6.4356   28-A1
  56   1.0000      -0.230275        -6.2661   29-A1
  57   1.0000      -0.192098        -5.2272   30-A1
  58   1.0000      -0.190505        -5.1839   31-A1
  59   1.0000      -0.181636        -4.9426   23-B1
  60   1.0000      -0.161923        -4.4061   24-B1
  61   1.0000      -0.147727        -4.0199   25-B1
  62   1.0000      -0.142487        -3.8773   32-A1
  63   1.0000      -0.129271        -3.5176    5-B2
  64   1.0000      -0.117488        -3.1970    6-B2
  65   1.0000      -0.116730        -3.1764   33-A1
  66   1.0000      -0.102242        -2.7821   26-B1
  67   1.0000      -0.082129        -2.2349   34-A1
  68   1.0000      -0.074935        -2.0391   27-B1
  69   1.0000      -0.066743        -1.8162   28-B1
  70   1.0000      -0.057147        -1.5551   35-A1
  71   1.0000      -0.050671        -1.3788    7-B2
  72   1.0000      -0.038027        -1.0348    8-B2
  73   1.0000      -0.034397        -0.9360   29-B1
  74   1.0000      -0.028774        -0.7830   36-A1
  75   1.0000      -0.027300        -0.7429    3-A2
  76   1.0000      -0.017895        -0.4870    4-A2
  77   1.0000      -0.002069        -0.0563   37-A1
  78   1.0000      -0.001148        -0.0312    9-B2
  79   1.0000      -0.000139        -0.0038    5-A2
  80   1.0000       0.016519         0.4495   38-A1
  81   1.0000       0.019914         0.5419   39-A1
  82   1.0000       0.033041         0.8991   30-B1
  83   1.0000       0.049529         1.3478    6-A2
  84   1.0000       0.055460         1.5091    7-A2
  85   1.0000       0.061427         1.6715   10-B2
  86   1.0000       0.085993         2.3400   11-B2
  87   1.0000       0.102366         2.7855   31-B1
  88   0.0000       0.180462         4.9106   40-A1
  89   0.0000       0.182995         4.9795   41-A1
  90   0.0000       0.196001         5.3335   32-B1
  91   0.0000       0.197587         5.3766   33-B1
  92   0.0000       0.198880         5.4118   12-B2

                 SPIN DOWN ORBITALS
  NO   OCC          E(Eh)            E(eV)    Irrep
   0   1.0000    -318.182977     -8658.1990    1-A1
   1   1.0000     -88.015577     -2395.0256    1-B1
   2   1.0000     -88.015567     -2395.0253    2-A1
   3   1.0000     -88.008490     -2394.8328    2-B1
   4   1.0000     -88.008466     -2394.8321    3-A1
   5   1.0000     -38.012408     -1034.3702    4-A1
   6   1.0000     -33.516257      -912.0237    3-B1
   7   1.0000     -33.515485      -912.0027    5-A1
   8   1.0000     -33.512518      -911.9220    1-B2
   9   1.0000      -9.837044      -267.6796    6-A1
  10   1.0000      -9.836748      -267.6715    4-B1
  11   1.0000      -9.825833      -267.3745    7-A1
  12   1.0000      -9.825414      -267.3631    5-B1
  13   1.0000      -9.822854      -267.2934    8-A1
  14   1.0000      -9.822339      -267.2794    6-B1
  15   1.0000      -9.820016      -267.2162    7-B1
  16   1.0000      -9.820012      -267.2161    9-A1
  17   1.0000      -9.811200      -266.9763   10-A1
  18   1.0000      -9.810361      -266.9535    8-B1
  19   1.0000      -9.800331      -266.6806    9-B1
  20   1.0000      -9.800327      -266.6805   11-A1
  21   1.0000      -7.584287      -206.3790   10-B1
  22   1.0000      -7.584279      -206.3787   12-A1
  23   1.0000      -7.580717      -206.2818   11-B1
  24   1.0000      -7.580695      -206.2812   13-A1
  25   1.0000      -5.507372      -149.8632   12-B1
  26   1.0000      -5.507371      -149.8632   14-A1
  27   1.0000      -5.502955      -149.7430   13-B1
  28   1.0000      -5.502954      -149.7430   15-A1
  29   1.0000      -5.500688      -149.6813   14-B1
  30   1.0000      -5.500688      -149.6813   16-A1
  31   1.0000      -5.500262      -149.6697    1-A2
  32   1.0000      -5.500262      -149.6697    2-B2
  33   1.0000      -5.497035      -149.5819   15-B1
  34   1.0000      -5.497035      -149.5819   17-A1
  35   1.0000      -5.496769      -149.5747    2-A2
  36   1.0000      -5.496769      -149.5747    3-B2
  37   1.0000      -3.992070      -108.6298   18-A1
  38   1.0000      -2.506726       -68.2115    4-B2
  39   1.0000      -2.505045       -68.1657   16-B1
  40   1.0000      -2.503687       -68.1288   19-A1
  41   1.0000      -0.607455       -16.5297   20-A1
  42   1.0000      -0.589222       -16.0336   21-A1
  43   1.0000      -0.526699       -14.3322   22-A1
  44   1.0000      -0.501201       -13.6384   23-A1
  45   1.0000      -0.491599       -13.3771   17-B1
  46   1.0000      -0.483247       -13.1498   18-B1
  47   1.0000      -0.410046       -11.1579   19-B1
  48   1.0000      -0.404313       -11.0019   20-B1
  49   1.0000      -0.397966       -10.8292   24-A1
  50   1.0000      -0.381278       -10.3751   25-A1
  51   1.0000      -0.321601        -8.7512   26-A1
  52   1.0000      -0.318102        -8.6560   27-A1
  53   1.0000      -0.298113        -8.1121   21-B1
  54   1.0000      -0.293272        -7.9803   22-B1
  55   1.0000      -0.235991        -6.4216   28-A1
  56   1.0000      -0.229618        -6.2482   29-A1
  57   1.0000      -0.190939        -5.1957   30-A1
  58   1.0000      -0.189589        -5.1590   31-A1
  59   1.0000      -0.181087        -4.9276   23-B1
  60   1.0000      -0.160524        -4.3681   24-B1
  61   1.0000      -0.146344        -3.9822   25-B1
  62   1.0000      -0.140938        -3.8351   32-A1
  63   1.0000      -0.128844        -3.5060    5-B2
  64   1.0000      -0.117330        -3.1927    6-B2
  65   1.0000      -0.115733        -3.1493   33-A1
  66   1.0000      -0.101730        -2.7682   26-B1
  67   1.0000      -0.080496        -2.1904   34-A1
  68   1.0000      -0.072627        -1.9763   27-B1
  69   1.0000      -0.055533        -1.5111   35-A1
  70   1.0000      -0.054270        -1.4768   28-B1
  71   1.0000      -0.049680        -1.3519    7-B2
  72   1.0000      -0.036503        -0.9933    8-B2
  73   1.0000      -0.024221        -0.6591    3-A2
  74   1.0000      -0.021930        -0.5967   36-A1
  75   1.0000      -0.015397        -0.4190    4-A2
  76   1.0000      -0.004237        -0.1153   29-B1
  77   1.0000       0.008905         0.2423   37-A1
  78   1.0000       0.009048         0.2462    5-A2
  79   1.0000       0.011368         0.3093    9-B2
  80   1.0000       0.025827         0.7028   38-A1
  81   1.0000       0.032762         0.8915   39-A1
  82   1.0000       0.041449         1.1279   30-B1
  83   1.0000       0.053278         1.4498    6-A2
  84   1.0000       0.059098         1.6081    7-A2
  85   1.0000       0.063294         1.7223   10-B2
  86   1.0000       0.090126         2.4525   11-B2
  87   0.0000       0.135558         3.6887   31-B1
  88   0.0000       0.181558         4.9404   40-A1
  89   0.0000       0.184093         5.0094   41-A1
  90   0.0000       0.197798         5.3823   32-B1
  91   0.0000       0.198912         5.4127   12-B2

MULLIKEN ATOMIC CHARGES AND SPIN POPULATIONS
--------------------------------------------
   0 Cu:    0.135149    0.376675
   1 S :   -0.453300    0.159422
   2 C :    0.092394   -0.006509
   3 S :   -0.420376    0.163889
   4 C :    0.019465   -0.007763
   5 S :   -0.453300    0.159422
   6 C :    0.092394   -0.006509
   7 S :   -0.420376    0.163889
   8 C :    0.019465   -0.007763
   9 C :   -0.094273   -0.001675
  10 C :   -0.094273   -0.001675
  11 C :   -0.131803   -0.000856
  12 H :    0.059868    0.001966
  13 C :   -0.131803   -0.000856
  14 H :    0.059868    0.001966
  15 H :    0.034638    0.001078
  16 H :    0.034638    0.001078
  17 C :   -0.102751   -0.000238
  18 C :   -0.102751   -0.000238
  19 C :   -0.161175   -0.000822
  20 H :    0.092849    0.001997
  21 C :   -0.161175   -0.000822
  22 H :    0.092849    0.001997
  23 H :   -0.003112    0.001172
  24 H :   -0.003112    0.001172
Sum of atomic charges         :   -2.0000000

LOEWDIN ATOMIC CHARGES AND SPIN POPULATIONS
-------------------------------------------
   0 Cu:   -0.858619    0.443149
   1 S :    0.074704    0.119095
   2 C :   -0.116831    0.007606
   3 S :    0.007814    0.124946
   4 C :   -0.030256    0.004766
   5 S :    0.074704    0.119095
   6 C :   -0.116831    0.007606
   7 S :    0.007814    0.124946
   8 C :   -0.030256    0.004766
   9 C :    0.306034    0.003804
  10 C :    0.306034    0.003804
  11 C :    0.311864   -0.000138
  12 H :   -0.442231    0.006121
  13 C :    0.311864   -0.000138
  14 H :   -0.442231    0.006121
  15 H :   -0.420150    0.000213
  16 H :   -0.420150    0.000213
  17 C :    0.315949    0.004430
  18 C :    0.315949    0.004430
  19 C :    0.308290   -0.000004
  20 H :   -0.494055    0.007463
  21 C :    0.308290   -0.000004
  22 H :   -0.494055    0.007463
  23 H :   -0.391822    0.000125
  24 H :   -0.391822    0.000125

  Mayer bond orders larger than 0.100000
B(  0-Cu,  1-S ) :   0.6909 B(  0-Cu,  3-S ) :   0.7070 B(  0-Cu,  5-S ) :   0.6909
B(  0-Cu,  7-S ) :   0.7070 B(  1-S ,  2-C ) :   1.2619 B(  2-C ,  6-C ) :   1.2030
B(  2-C , 17-C ) :   1.2730 B(  3-S ,  4-C ) :   1.1767 B(  4-C ,  8-C ) :   1.2466
B(  4-C , 10-C ) :   1.3220 B(  5-S ,  6-C ) :   1.2619 B(  6-C , 18-C ) :   1.2730
B(  7-S ,  8-C ) :   1.1767 B(  8-C ,  9-C ) :   1.3220 B(  9-C , 13-C ) :   1.3605
B(  9-C , 14-H ) :   0.9735 B( 10-C , 11-C ) :   1.3605 B( 10-C , 12-H ) :   0.9735
B( 11-C , 13-C ) :   1.3408 B( 11-C , 15-H ) :   0.9861 B( 13-C , 16-H ) :   0.9861
B( 17-C , 19-C ) :   1.3640 B( 17-C , 20-H ) :   0.9546 B( 18-C , 21-C ) :   1.3640
B( 18-C , 22-H ) :   0.9546 B( 19-C , 21-C ) :   1.3147 B( 19-C , 23-H ) :   1.0108
B( 21-C , 24-H ) :   1.0108

FINAL SINGLE POINT ENERGY     -3686.872061475396

DIPOLE MOMENT
-------------
                                X             Y             Z
Electronic contribution:     -0.00000      -0.00000      -0.05155
Nuclear contribution   :      0.00000       0.00000      -0.27609
                        -----------------------------------------
Total Dipole Moment    :     -0.00000      -0.00000      -0.32764
                        -----------------------------------------
Magnitude (a.u.)       :      0.32764
Magnitude (Debye)      :      0.83280

Rotational constants in cm-1:     0.034647     0.004810     0.004223
Rotational constants in MHz :  1038.684995   144.185980   126.610440

                             ****ORCA TERMINATED NORMALLY****
TOTAL RUN TIME: 0 days 6 hours 17 minutes 14 seconds 750 msec
