                         Program Version 5.0.4 -  RELEASE  -
|  1> ! RIJCOSX nofrozencore ReducedPop printbasis
|  2> ! M06L ano-rcc-dzp autoaux
|  3>
|  4> %maxcore 5000
|  5> %basis
|  6> PCDTrimBas overlap
|  7> PCDTrimAuxJ Coulomb
|  8> PCDTrimAuxJK Coulomb
|  9> PCDTrimAuxC Coulomb
| 10> PCDThresh -1
| 11> end
| 12>
| 13> %basis
| 14> newgto Cu "ano-rcc-tzp" end
| 15> newgto S "ano-rcc-tzp" end
| 16> end
| 17>
| 18> %pal
| 19> nprocs 12
| 20> end
| 21>
| 22> % sym SymThresh 1e-2 end
| 23> * xyz -2 2
| 24> Cu -1.1701619012321455e-06 1.3931882177726594e-06 8.305105145416348e-07
| 25> S 1.2259878439684655 1.6570069851210105 -1.0599340124402714
| 26> C 0.3771962931198853 1.9402205203329037 -2.5568485890700945
| 27> S 1.387309244583939 0.06879474490741709 1.8554929386295342
| 28> C 0.8143900626257919 -1.2279102764144363 2.878723762972262
| 29> S -1.393115587937853 -0.061881744970829156 -1.8513719454563786
| 30> C -0.6941091207981397 1.0847044595095845 -2.964091938761997
| 31> S -1.2201873514240578 -1.6639130191165095 1.0558171718196885
| 32> C -0.4974099506382167 -1.797094811750574 2.642169010505243
| 33> C -0.862262589281641 -2.8784293374704752 3.479304544885458
| 34> C 1.303260375527152 -1.330728496290938 4.202984597781686
| 35> C 0.9027112903614088 -2.3828088701424517 5.0318346724196426
| 36> H 2.055035719185387 -0.5968463873752856 4.550032531567578
| 37> C -0.34002315721584225 -2.9883326733846105 4.77140464551603
| 38> H -1.6150803151284443 -3.6023185081964932 3.114003019597861
| 39> H 1.331467908964928 -2.4557593552676575 6.033621406940855
| 40> H -0.6741910669382528 -3.8126368752895794 5.405316361460426
| 41> C 0.9117002246465115 2.819568745151373 -3.514391492478181
| 42> C -1.3527208290490962 1.3896162557802874 -4.16788145523393
| 43> C 0.25275306770289946 3.0922359540719864 -4.709465586596773
| 44> H 1.8546580926248126 3.3170785456779366 -3.284040911834601
| 45> C -0.8155330585577127 2.2790149547301706 -5.093708536263509
| 46> H -2.2945357311959875 0.881994182777895 -4.380050744160945
| 47> H 0.6871601956233455 3.7971974002066475 -5.414520248482386
| 48> H -1.343675983746746 2.470295717878322 -6.024956029731938
| 49> *
| 50>
| 51> % eprnmr
| 52> gtensor true
| 53> Nuclei = all H {aiso,adip,aorb,fgrad,rho}
| 54> Nuclei = all Cu {aiso,adip,aorb,fgrad,rho}
| 55> end
| 56>
| 57>                          ****END OF INPUT****

CARTESIAN COORDINATES (ANGSTROEM)
---------------------------------
  Cu     0.000000    0.000000    0.000000
  S      1.298083    0.961844   -1.661931
  C      0.529765    0.480325   -3.151642
  S      1.292162    0.969802    1.661931
  C      0.652447    0.315436    3.151642
  S     -1.298083   -0.961844   -1.661931
  C     -0.529765   -0.480325   -3.151642
  S     -1.292162   -0.969802    1.661931
  C     -0.652447   -0.315436    3.151642
  C     -1.072286   -0.867380    4.385461
  C      1.072286    0.867380    4.385461
  C      0.617575    0.336628    5.596188
  H      1.814300    1.688050    4.375043
  C     -0.617575   -0.336628    5.596188
  H     -1.814300   -1.688050    4.375043
  H      0.993728    0.759698    6.530201
  H     -0.993728   -0.759698    6.530201
  C      1.122736    0.799573   -4.385460
  C     -1.122736   -0.799573   -4.385460
  C      0.528585    0.456234   -5.596188
  H      2.058691    1.359582   -4.375043
  C     -0.528585   -0.456234   -5.596188
  H     -2.058691   -1.359582   -4.375043
  H      1.006572    0.742436   -6.530201
  H     -1.006572   -0.742436   -6.530201

 Total Charge           Charge          ....   -2
 Multiplicity           Mult            ....    2
 Number of Electrons    NEL             ....  175
 Basis Dimension        Dim             ....  475

ORBITAL ENERGIES
----------------
                 SPIN UP ORBITALS
  NO   OCC          E(Eh)            E(eV)    Irrep
   0   1.0000    -318.182543     -8658.1872    1-A
   1   1.0000     -88.015887     -2395.0341    1-B
   2   1.0000     -88.015882     -2395.0339    2-A
   3   1.0000     -88.015322     -2395.0187    2-B
   4   1.0000     -88.015312     -2395.0184    3-A
   5   1.0000     -38.027763     -1034.7880    4-A
   6   1.0000     -33.530898      -912.4221    3-B
   7   1.0000     -33.530021      -912.3982    5-A
   8   1.0000     -33.516334      -912.0258    4-B
   9   1.0000      -9.837275      -267.6859    6-A
  10   1.0000      -9.837013      -267.6787    5-B
  11   1.0000      -9.834241      -267.6033    7-A
  12   1.0000      -9.833930      -267.5948    6-B
  13   1.0000      -9.825385      -267.3623    8-A
  14   1.0000      -9.825005      -267.3520    7-B
  15   1.0000      -9.824572      -267.3402    9-A
  16   1.0000      -9.824155      -267.3289    8-B
  17   1.0000      -9.821676      -267.2614    9-B
  18   1.0000      -9.821676      -267.2614   10-A
  19   1.0000      -9.818189      -267.1665   10-B
  20   1.0000      -9.818186      -267.1664   11-A
  21   1.0000      -7.584457      -206.3836   11-B
  22   1.0000      -7.584452      -206.3834   12-A
  23   1.0000      -7.583991      -206.3709   12-B
  24   1.0000      -7.583983      -206.3707   13-A
  25   1.0000      -5.507614      -149.8698   13-B
  26   1.0000      -5.507613      -149.8698   14-A
  27   1.0000      -5.507182      -149.8580   14-B
  28   1.0000      -5.507182      -149.8580   15-A
  29   1.0000      -5.502382      -149.7274   15-B
  30   1.0000      -5.502382      -149.7274   16-A
  31   1.0000      -5.501901      -149.7143   16-B
  32   1.0000      -5.501901      -149.7143   17-A
  33   1.0000      -5.500597      -149.6789   18-A
  34   1.0000      -5.500597      -149.6789   17-B
  35   1.0000      -5.500078      -149.6647   19-A
  36   1.0000      -5.500078      -149.6647   18-B
  37   1.0000      -4.025351      -109.5354   20-A
  38   1.0000      -2.546768       -69.3011   19-B
  39   1.0000      -2.545180       -69.2579   21-A
  40   1.0000      -2.517918       -68.5160   20-B
  41   1.0000      -0.589228       -16.0337   22-A
  42   1.0000      -0.586883       -15.9699   23-A
  43   1.0000      -0.504001       -13.7146   24-A
  44   1.0000      -0.501353       -13.6425   25-A
  45   1.0000      -0.489729       -13.3262   21-B
  46   1.0000      -0.487514       -13.2659   22-B
  47   1.0000      -0.409600       -11.1458   23-B
  48   1.0000      -0.406736       -11.0678   24-B
  49   1.0000      -0.386929       -10.5289   26-A
  50   1.0000      -0.379775       -10.3342   27-A
  51   1.0000      -0.319666        -8.6986   28-A
  52   1.0000      -0.313522        -8.5314   29-A
  53   1.0000      -0.299067        -8.1380   25-B
  54   1.0000      -0.294818        -8.0224   26-B
  55   1.0000      -0.231293        -6.2938   30-A
  56   1.0000      -0.224904        -6.1199   31-A
  57   1.0000      -0.187736        -5.1086   32-A
  58   1.0000      -0.180709        -4.9173   33-A
  59   1.0000      -0.180211        -4.9038   27-B
  60   1.0000      -0.176904        -4.8138   28-B
  61   1.0000      -0.146784        -3.9942   29-B
  62   1.0000      -0.143046        -3.8925   30-B
  63   1.0000      -0.129818        -3.5325   34-A
  64   1.0000      -0.115126        -3.1327   31-B
  65   1.0000      -0.113627        -3.0919   35-A
  66   1.0000      -0.109055        -2.9675   32-B
  67   1.0000      -0.091923        -2.5014   36-A
  68   1.0000      -0.070520        -1.9190   33-B
  69   1.0000      -0.069094        -1.8802   37-A
  70   1.0000      -0.066375        -1.8061   34-B
  71   1.0000      -0.041378        -1.1259   35-B
  72   1.0000      -0.037784        -1.0281   36-B
  73   1.0000      -0.031924        -0.8687   38-A
  74   1.0000      -0.026086        -0.7098   37-B
  75   1.0000      -0.021676        -0.5898   39-A
  76   1.0000      -0.013302        -0.3620   40-A
  77   1.0000      -0.001644        -0.0447   41-A
  78   1.0000       0.000400         0.0109   38-B
  79   1.0000       0.003138         0.0854   42-A
  80   1.0000       0.018059         0.4914   43-A
  81   1.0000       0.020325         0.5531   44-A
  82   1.0000       0.033755         0.9185   39-B
  83   1.0000       0.049699         1.3524   45-A
  84   1.0000       0.051668         1.4060   46-A
  85   1.0000       0.061448         1.6721   40-B
  86   1.0000       0.086333         2.3492   41-B
  87   1.0000       0.104032         2.8308   42-B
  88   0.0000       0.181279         4.9329   47-A
  89   0.0000       0.181774         4.9463   48-A
  90   0.0000       0.191076         5.1994   43-B
  91   0.0000       0.195723         5.3259   49-A
  92   0.0000       0.196795         5.3551   44-B

                 SPIN DOWN ORBITALS
  NO   OCC          E(Eh)            E(eV)    Irrep
   0   1.0000    -318.182370     -8658.1825    1-A
   1   1.0000     -88.014822     -2395.0051    1-B
   2   1.0000     -88.014817     -2395.0049    2-A
   3   1.0000     -88.014251     -2394.9895    2-B
   4   1.0000     -88.014241     -2394.9892    3-A
   5   1.0000     -38.011931     -1034.3572    4-A
   6   1.0000     -33.515772      -912.0105    3-B
   7   1.0000     -33.514929      -911.9876    5-A
   8   1.0000     -33.512021      -911.9085    4-B
   9   1.0000      -9.837382      -267.6888    6-A
  10   1.0000      -9.837119      -267.6816    5-B
  11   1.0000      -9.834353      -267.6064    7-A
  12   1.0000      -9.834042      -267.5979    6-B
  13   1.0000      -9.825365      -267.3618    8-A
  14   1.0000      -9.824985      -267.3514    7-B
  15   1.0000      -9.824550      -267.3396    9-A
  16   1.0000      -9.824134      -267.3283    8-B
  17   1.0000      -9.821617      -267.2598    9-B
  18   1.0000      -9.821616      -267.2598   10-A
  19   1.0000      -9.818131      -267.1649   10-B
  20   1.0000      -9.818127      -267.1648   11-A
  21   1.0000      -7.583729      -206.3638   11-B
  22   1.0000      -7.583724      -206.3636   12-A
  23   1.0000      -7.583257      -206.3509   12-B
  24   1.0000      -7.583250      -206.3507   13-A
  25   1.0000      -5.506690      -149.8446   13-B
  26   1.0000      -5.506689      -149.8446   14-A
  27   1.0000      -5.506251      -149.8327   14-B
  28   1.0000      -5.506250      -149.8327   15-A
  29   1.0000      -5.500210      -149.6683   15-B
  30   1.0000      -5.500210      -149.6683   16-A
  31   1.0000      -5.499725      -149.6551   17-A
  32   1.0000      -5.499725      -149.6551   16-B
  33   1.0000      -5.499672      -149.6537   17-B
  34   1.0000      -5.499672      -149.6537   18-A
  35   1.0000      -5.499244      -149.6420   19-A
  36   1.0000      -5.499244      -149.6420   18-B
  37   1.0000      -3.991680      -108.6191   20-A
  38   1.0000      -2.506234       -68.1981   19-B
  39   1.0000      -2.504777       -68.1584   20-B
  40   1.0000      -2.503184       -68.1151   21-A
  41   1.0000      -0.588858       -16.0236   22-A
  42   1.0000      -0.586500       -15.9595   23-A
  43   1.0000      -0.502674       -13.6784   24-A
  44   1.0000      -0.500014       -13.6061   25-A
  45   1.0000      -0.488678       -13.2976   21-B
  46   1.0000      -0.486436       -13.2366   22-B
  47   1.0000      -0.405624       -11.0376   23-B
  48   1.0000      -0.402666       -10.9571   24-B
  49   1.0000      -0.383700       -10.4410   26-A
  50   1.0000      -0.376574       -10.2471   27-A
  51   1.0000      -0.318390        -8.6638   28-A
  52   1.0000      -0.312157        -8.4942   29-A
  53   1.0000      -0.297248        -8.0885   25-B
  54   1.0000      -0.292649        -7.9634   26-B
  55   1.0000      -0.230704        -6.2778   30-A
  56   1.0000      -0.224211        -6.1011   31-A
  57   1.0000      -0.186760        -5.0820   32-A
  58   1.0000      -0.179704        -4.8900   27-B
  59   1.0000      -0.179687        -4.8895   33-A
  60   1.0000      -0.176136        -4.7929   28-B
  61   1.0000      -0.146045        -3.9741   29-B
  62   1.0000      -0.141357        -3.8465   30-B
  63   1.0000      -0.128565        -3.4984   34-A
  64   1.0000      -0.114917        -3.1271   31-B
  65   1.0000      -0.112838        -3.0705   35-A
  66   1.0000      -0.108789        -2.9603   32-B
  67   1.0000      -0.090648        -2.4666   36-A
  68   1.0000      -0.069116        -1.8807   33-B
  69   1.0000      -0.067404        -1.8342   37-A
  70   1.0000      -0.054616        -1.4862   34-B
  71   1.0000      -0.036044        -0.9808   35-B
  72   1.0000      -0.031485        -0.8567   36-B
  73   1.0000      -0.025980        -0.7069   38-A
  74   1.0000      -0.017449        -0.4748   39-A
  75   1.0000      -0.008604        -0.2341   40-A
  76   1.0000      -0.003254        -0.0885   37-B
  77   1.0000       0.007468         0.2032   41-A
  78   1.0000       0.012082         0.3288   42-A
  79   1.0000       0.012577         0.3422   38-B
  80   1.0000       0.026429         0.7192   43-A
  81   1.0000       0.033327         0.9069   44-A
  82   1.0000       0.042031         1.1437   39-B
  83   1.0000       0.052386         1.4255   45-A
  84   1.0000       0.057010         1.5513   46-A
  85   1.0000       0.063321         1.7230   40-B
  86   1.0000       0.090499         2.4626   41-B
  87   0.0000       0.136941         3.7264   42-B
  88   0.0000       0.182383         4.9629   47-A
  89   0.0000       0.182776         4.9736   48-A
  90   0.0000       0.191293         5.2053   43-B
  91   0.0000       0.196173         5.3381   49-A

MULLIKEN ATOMIC CHARGES AND SPIN POPULATIONS
--------------------------------------------
   0 Cu:    0.140783    0.374686
   1 S :   -0.416612    0.163244
   2 C :    0.015224   -0.007313
   3 S :   -0.399810    0.162342
   4 C :   -0.004089   -0.006769
   5 S :   -0.416612    0.163244
   6 C :    0.015224   -0.007313
   7 S :   -0.399810    0.162342
   8 C :   -0.004089   -0.006769
   9 C :   -0.057165   -0.001338
  10 C :   -0.057165   -0.001338
  11 C :   -0.160555   -0.001062
  12 H :    0.045513    0.001891
  13 C :   -0.160555   -0.001062
  14 H :    0.045513    0.001891
  15 H :    0.039984    0.001046
  16 H :    0.039984    0.001046
  17 C :   -0.082138   -0.001552
  18 C :   -0.082138   -0.001552
  19 C :   -0.144986   -0.000910
  20 H :    0.059403    0.001999
  21 C :   -0.144986   -0.000910
  22 H :    0.059403    0.001999
  23 H :    0.034840    0.001079
  24 H :    0.034840    0.001079
Sum of atomic charges         :   -2.0000000

LOEWDIN ATOMIC CHARGES AND SPIN POPULATIONS
-------------------------------------------
   0 Cu:   -0.895424    0.441588
   1 S :    0.006651    0.124346
   2 C :   -0.035917    0.005230
   3 S :    0.000236    0.123934
   4 C :   -0.029624    0.005404
   5 S :    0.006651    0.124346
   6 C :   -0.035917    0.005230
   7 S :    0.000236    0.123934
   8 C :   -0.029624    0.005404
   9 C :    0.298236    0.004056
  10 C :    0.298236    0.004056
  11 C :    0.308003   -0.000298
  12 H :   -0.427729    0.006155
  13 C :    0.308003   -0.000298
  14 H :   -0.427729    0.006155
  15 H :   -0.425492    0.000161
  16 H :   -0.425492    0.000161
  17 C :    0.304419    0.003939
  18 C :    0.304419    0.003939
  19 C :    0.311104   -0.000162
  20 H :   -0.441941    0.006246
  21 C :    0.311104   -0.000162
  22 H :   -0.441941    0.006246
  23 H :   -0.420234    0.000195
  24 H :   -0.420234    0.000195

  Mayer bond orders larger than 0.100000
B(  0-Cu,  1-S ) :   0.7018 B(  0-Cu,  3-S ) :   0.7007 B(  0-Cu,  5-S ) :   0.7018
B(  0-Cu,  7-S ) :   0.7007 B(  1-S ,  2-C ) :   1.1862 B(  2-C ,  6-C ) :   1.2472
B(  2-C , 17-C ) :   1.3149 B(  3-S ,  4-C ) :   1.1896 B(  4-C ,  8-C ) :   1.2476
B(  4-C , 10-C ) :   1.3054 B(  5-S ,  6-C ) :   1.1862 B(  6-C , 18-C ) :   1.3149
B(  7-S ,  8-C ) :   1.1896 B(  8-C ,  9-C ) :   1.3054 B(  9-C , 13-C ) :   1.3638
B(  9-C , 14-H ) :   0.9801 B( 10-C , 11-C ) :   1.3638 B( 10-C , 12-H ) :   0.9801
B( 11-C , 13-C ) :   1.3450 B( 11-C , 15-H ) :   0.9834 B( 13-C , 16-H ) :   0.9834
B( 17-C , 19-C ) :   1.3629 B( 17-C , 20-H ) :   0.9727 B( 18-C , 21-C ) :   1.3629
B( 18-C , 22-H ) :   0.9727 B( 19-C , 21-C ) :   1.3425 B( 19-C , 23-H ) :   0.9863
B( 21-C , 24-H ) :   0.9863

FINAL SINGLE POINT ENERGY     -3686.887812603746

DIPOLE MOMENT
-------------
                                X             Y             Z
Electronic contribution:     -0.00000       0.00000      -0.09485
Nuclear contribution   :      0.00000       0.00000      -0.00000
                        -----------------------------------------
Total Dipole Moment    :     -0.00000       0.00000      -0.09485
                        -----------------------------------------
Magnitude (a.u.)       :      0.09485
Magnitude (Debye)      :      0.24109

Rotational constants in cm-1:     0.033347     0.004802     0.004200
Rotational constants in MHz :   999.728191   143.971442   125.919615

                             ****ORCA TERMINATED NORMALLY****
TOTAL RUN TIME: 0 days 5 hours 42 minutes 8 seconds 596 msec
