                         Program Version 5.0.4 -  RELEASE  -
|  1> ! RIJCOSX nofrozencore ReducedPop printbasis
|  2> ! M06L ano-rcc-dzp autoaux
|  3>
|  4> %maxcore 5000
|  5> %basis
|  6> PCDTrimBas overlap
|  7> PCDTrimAuxJ Coulomb
|  8> PCDTrimAuxJK Coulomb
|  9> PCDTrimAuxC Coulomb
| 10> PCDThresh -1
| 11> end
| 12>
| 13> %basis
| 14> newgto Cu "ano-rcc-tzp" end
| 15> newgto S "ano-rcc-tzp" end
| 16> end
| 17>
| 18> %pal
| 19> nprocs 12
| 20> end
| 21>
| 22> % sym SymThresh 1e-2 end
| 23> * xyz -2 2
| 24> Cu -1.1214909941890246e-05 1.5677434945193508e-05 -9.735729982150551e-05
| 25> S -1.372254820174324 1.6784224957237386 -0.8231580830003615
| 26> C -2.001046736144002 2.4086448405939866 0.5962787262618116
| 27> S 0.5867674040083651 -0.6636955885523268 -2.1439505860209245
| 28> C 1.6519876207805364 -1.9590419315961483 -1.8534741530477017
| 29> S -0.5852949704040554 0.6619695280241 2.141371442881469
| 30> C -1.7038454165962487 2.020009821608944 1.936099386636016
| 31> S 1.3701489568174958 -1.675874491168736 0.8231756702131438
| 32> C 2.073637692573621 -2.4963586862059786 -0.6023452168938592
| 33> C 2.8782068717221487 -3.4722483762439453 -0.49832033120843766
| 34> C 2.2602854541307447 -2.6689817824132196 -3.064027429084852
| 35> C 3.1699434966012268 -3.774782101439044 -2.833391129053492
| 36> H 1.8941106157336602 -2.205620927622062 -3.9997061062283876
| 37> C 3.4486006419253648 -4.140514821136124 -1.5148968659064057
| 38> H 3.2458125208868513 -3.9369458054573614 0.41910119957097436
| 39> H 3.382393542651289 -4.007679716529981 -3.952028175713078
| 40> H 4.168133528765549 -5.00549470216832 -1.7809199005161174
| 41> C -2.940987612815487 3.5490447152886904 0.4602720693940543
| 42> C -2.238295129392381 2.6444615365515496 2.967352941520735
| 43> C -3.4758235898112635 4.171039056615613 1.6267449209042215
| 44> H -3.13400132574002 3.805310149964742 -0.5888324979925242
| 45> C -3.0991709293764917 3.6881937159216367 2.8770258257742136
| 46> H -2.0335390768495993 2.3743981781812256 3.9974133967984042
| 47> H -4.138321274611198 4.9813629130946335 1.2286732749688538
| 48> H -3.6436714164400246 4.331383764954165 3.604281133867672
| 49> *
| 50>
| 51> % eprnmr
| 52> gtensor true
| 53> Nuclei = all H {aiso,adip,aorb,fgrad,rho}
| 54> Nuclei = all Cu {aiso,adip,aorb,fgrad,rho}
| 55> end
| 56>
| 57>                          ****END OF INPUT****

CARTESIAN COORDINATES (ANGSTROEM)
---------------------------------
  Cu     0.000020   -0.000097    0.000000
  S      2.172612   -0.810883    0.000000
  C      3.127959    0.614150    0.000000
  S     -0.873171   -2.149159    0.000000
  C     -2.551878   -1.868206    0.000000
  S      0.870917    2.146567    0.000000
  C      2.631438    1.951293    0.000000
  S     -2.169307    0.810919    0.000000
  C     -3.241778   -0.620865    0.000000
  C     -4.507139   -0.524031    0.000000
  C     -3.479724   -3.084175    0.000000
  C     -4.912888   -2.861671    0.000000
  H     -2.883966   -4.016567    0.000000
  C     -5.379821   -1.545688    0.000000
  H     -5.104735    0.390091    0.000000
  H     -5.221378   -3.982188    0.000000
  H     -6.503412   -1.818136    0.000000
  C      4.606544    0.486545    0.000000
  C      3.447366    2.987306    0.000000
  C      5.420054    1.657778    0.000000
  H      4.933007   -0.560818    0.000000
  C      4.800811    2.904673    0.000000
  H      3.102896    4.015520    0.000000
  H      6.468964    1.265632    0.000000
  H      5.639316    3.636782    0.000000

 Total Charge           Charge          ....   -2
 Multiplicity           Mult            ....    2
 Number of Electrons    NEL             ....  175
 Basis Dimension        Dim             ....  475

ORBITAL ENERGIES
----------------
                 SPIN UP ORBITALS
  NO   OCC          E(Eh)            E(eV)    Irrep
   0   1.0000    -318.182951     -8658.1983    1-A'
   1   1.0000     -88.022673     -2395.2187    2-A'
   2   1.0000     -88.019884     -2395.1428    3-A'
   3   1.0000     -88.011946     -2394.9268    4-A'
   4   1.0000     -88.010413     -2394.8851    5-A'
   5   1.0000     -38.028088     -1034.7969    6-A'
   6   1.0000     -33.531216      -912.4308    7-A'
   7   1.0000     -33.530371      -912.4078    8-A'
   8   1.0000     -33.516643      -912.0342    1-A"
   9   1.0000      -9.842117      -267.8176    9-A'
  10   1.0000      -9.838668      -267.7238   10-A'
  11   1.0000      -9.836142      -267.6550   11-A'
  12   1.0000      -9.832508      -267.5562   12-A'
  13   1.0000      -9.829665      -267.4788   13-A'
  14   1.0000      -9.828271      -267.4408   14-A'
  15   1.0000      -9.827172      -267.4110   15-A'
  16   1.0000      -9.825465      -267.3645   16-A'
  17   1.0000      -9.824426      -267.3362   17-A'
  18   1.0000      -9.821409      -267.2541   18-A'
  19   1.0000      -9.813725      -267.0450   19-A'
  20   1.0000      -9.812896      -267.0225   20-A'
  21   1.0000      -7.591832      -206.5842   21-A'
  22   1.0000      -7.588931      -206.5053   22-A'
  23   1.0000      -7.580298      -206.2704   23-A'
  24   1.0000      -7.578615      -206.2246   24-A'
  25   1.0000      -5.514760      -150.0642   25-A'
  26   1.0000      -5.511942      -149.9876   26-A'
  27   1.0000      -5.509570      -149.9230   27-A'
  28   1.0000      -5.508233      -149.8866    2-A"
  29   1.0000      -5.506729      -149.8457   28-A'
  30   1.0000      -5.505215      -149.8045    3-A"
  31   1.0000      -5.503708      -149.7635   29-A'
  32   1.0000      -5.502156      -149.7213   30-A'
  33   1.0000      -5.498306      -149.6165   31-A'
  34   1.0000      -5.496649      -149.5714   32-A'
  35   1.0000      -5.496166      -149.5583    4-A"
  36   1.0000      -5.494368      -149.5094    5-A"
  37   1.0000      -4.025704      -109.5450   33-A'
  38   1.0000      -2.547112       -69.3104   34-A'
  39   1.0000      -2.545590       -69.2690   35-A'
  40   1.0000      -2.518237       -68.5247    6-A"
  41   1.0000      -0.598441       -16.2844   36-A'
  42   1.0000      -0.593944       -16.1620   37-A'
  43   1.0000      -0.507238       -13.8026   38-A'
  44   1.0000      -0.505714       -13.7612   39-A'
  45   1.0000      -0.491735       -13.3808   40-A'
  46   1.0000      -0.491281       -13.3684   41-A'
  47   1.0000      -0.412841       -11.2340   42-A'
  48   1.0000      -0.410015       -11.1571   43-A'
  49   1.0000      -0.387805       -10.5527   44-A'
  50   1.0000      -0.381463       -10.3801   45-A'
  51   1.0000      -0.327142        -8.9020   46-A'
  52   1.0000      -0.323195        -8.7946   47-A'
  53   1.0000      -0.298706        -8.1282   48-A'
  54   1.0000      -0.294955        -8.0261   49-A'
  55   1.0000      -0.230533        -6.2731   50-A'
  56   1.0000      -0.226172        -6.1544   51-A'
  57   1.0000      -0.219527        -5.9736   52-A'
  58   1.0000      -0.210723        -5.7341   53-A'
  59   1.0000      -0.164124        -4.4661   54-A'
  60   1.0000      -0.157624        -4.2892   55-A'
  61   1.0000      -0.138291        -3.7631   56-A'
  62   1.0000      -0.128512        -3.4970   57-A'
  63   1.0000      -0.125895        -3.4258   58-A'
  64   1.0000      -0.124321        -3.3829    7-A"
  65   1.0000      -0.120578        -3.2811    8-A"
  66   1.0000      -0.105863        -2.8807   59-A'
  67   1.0000      -0.078062        -2.1242   60-A'
  68   1.0000      -0.065630        -1.7859   61-A'
  69   1.0000      -0.061209        -1.6656   62-A'
  70   1.0000      -0.055726        -1.5164   63-A'
  71   1.0000      -0.041691        -1.1345    9-A"
  72   1.0000      -0.040098        -1.0911   10-A"
  73   1.0000      -0.032729        -0.8906   64-A'
  74   1.0000      -0.027505        -0.7485   11-A"
  75   1.0000      -0.025147        -0.6843   65-A'
  76   1.0000      -0.021043        -0.5726   12-A"
  77   1.0000      -0.004420        -0.1203   13-A"
  78   1.0000      -0.001775        -0.0483   66-A'
  79   1.0000      -0.000061        -0.0017   14-A"
  80   1.0000       0.016873         0.4591   67-A'
  81   1.0000       0.021103         0.5742   68-A'
  82   1.0000       0.034191         0.9304   69-A'
  83   1.0000       0.049403         1.3443   15-A"
  84   1.0000       0.051369         1.3978   16-A"
  85   1.0000       0.061344         1.6693   17-A"
  86   1.0000       0.086105         2.3430   18-A"
  87   1.0000       0.103725         2.8225   70-A'
  88   0.0000       0.180778         4.9192   71-A'
  89   0.0000       0.181024         4.9259   72-A'
  90   0.0000       0.194316         5.2876   19-A"
  91   0.0000       0.195865         5.3298   73-A'
  92   0.0000       0.196284         5.3412   74-A'

                 SPIN DOWN ORBITALS
  NO   OCC          E(Eh)            E(eV)    Irrep
   0   1.0000    -318.182777     -8658.1935    1-A'
   1   1.0000     -88.021626     -2395.1902    2-A'
   2   1.0000     -88.018835     -2395.1143    3-A'
   3   1.0000     -88.010856     -2394.8971    4-A'
   4   1.0000     -88.009323     -2394.8554    5-A'
   5   1.0000     -38.012260     -1034.3662    6-A'
   6   1.0000     -33.516095      -912.0193    7-A'
   7   1.0000     -33.515282      -911.9972    8-A'
   8   1.0000     -33.512328      -911.9168    1-A"
   9   1.0000      -9.842230      -267.8207    9-A'
  10   1.0000      -9.838779      -267.7268   10-A'
  11   1.0000      -9.836104      -267.6540   11-A'
  12   1.0000      -9.832493      -267.5557   12-A'
  13   1.0000      -9.829634      -267.4779   13-A'
  14   1.0000      -9.828387      -267.4440   14-A'
  15   1.0000      -9.827155      -267.4105   15-A'
  16   1.0000      -9.825577      -267.3675   16-A'
  17   1.0000      -9.824345      -267.3340   17-A'
  18   1.0000      -9.821337      -267.2522   18-A'
  19   1.0000      -9.813677      -267.0437   19-A'
  20   1.0000      -9.812855      -267.0214   20-A'
  21   1.0000      -7.591107      -206.5645   21-A'
  22   1.0000      -7.588209      -206.4857   22-A'
  23   1.0000      -7.579552      -206.2501   23-A'
  24   1.0000      -7.577872      -206.2044   24-A'
  25   1.0000      -5.513841      -150.0392   25-A'
  26   1.0000      -5.511025      -149.9626   26-A'
  27   1.0000      -5.507421      -149.8646    2-A"
  28   1.0000      -5.507371      -149.8632   27-A'
  29   1.0000      -5.504530      -149.7859   28-A'
  30   1.0000      -5.504408      -149.7826    3-A"
  31   1.0000      -5.502762      -149.7378   29-A'
  32   1.0000      -5.501212      -149.6956   30-A'
  33   1.0000      -5.496011      -149.5541   31-A'
  34   1.0000      -5.495343      -149.5359    4-A"
  35   1.0000      -5.494358      -149.5091   32-A'
  36   1.0000      -5.493550      -149.4871    5-A"
  37   1.0000      -3.992069      -108.6297   33-A'
  38   1.0000      -2.506554       -68.2068    6-A"
  39   1.0000      -2.505179       -68.1694   34-A'
  40   1.0000      -2.503627       -68.1272   35-A'
  41   1.0000      -0.598113       -16.2755   36-A'
  42   1.0000      -0.593601       -16.1527   37-A'
  43   1.0000      -0.505893       -13.7661   38-A'
  44   1.0000      -0.504434       -13.7263   39-A'
  45   1.0000      -0.490605       -13.3500   40-A'
  46   1.0000      -0.490202       -13.3391   41-A'
  47   1.0000      -0.409355       -11.1391   42-A'
  48   1.0000      -0.406294       -11.0558   43-A'
  49   1.0000      -0.384319       -10.4578   44-A'
  50   1.0000      -0.378068       -10.2878   45-A'
  51   1.0000      -0.325803        -8.8655   46-A'
  52   1.0000      -0.321623        -8.7518   47-A'
  53   1.0000      -0.296868        -8.0782   48-A'
  54   1.0000      -0.292668        -7.9639   49-A'
  55   1.0000      -0.229880        -6.2554   50-A'
  56   1.0000      -0.225477        -6.1355   51-A'
  57   1.0000      -0.218782        -5.9534   52-A'
  58   1.0000      -0.209974        -5.7137   53-A'
  59   1.0000      -0.163461        -4.4480   54-A'
  60   1.0000      -0.156953        -4.2709   55-A'
  61   1.0000      -0.137036        -3.7289   56-A'
  62   1.0000      -0.125705        -3.4206   57-A'
  63   1.0000      -0.124278        -3.3818   58-A'
  64   1.0000      -0.124190        -3.3794    7-A"
  65   1.0000      -0.120417        -3.2767    8-A"
  66   1.0000      -0.104828        -2.8525   59-A'
  67   1.0000      -0.076800        -2.0898   60-A'
  68   1.0000      -0.062309        -1.6955   61-A'
  69   1.0000      -0.059326        -1.6144   62-A'
  70   1.0000      -0.042398        -1.1537   63-A'
  71   1.0000      -0.039877        -1.0851    9-A"
  72   1.0000      -0.038751        -1.0545   10-A"
  73   1.0000      -0.024687        -0.6718   11-A"
  74   1.0000      -0.020275        -0.5517   12-A"
  75   1.0000      -0.019221        -0.5230   64-A'
  76   1.0000      -0.004985        -0.1356   65-A'
  77   1.0000       0.005404         0.1470   13-A"
  78   1.0000       0.008883         0.2417   66-A'
  79   1.0000       0.012218         0.3325   14-A"
  80   1.0000       0.027680         0.7532   67-A'
  81   1.0000       0.032227         0.8769   68-A'
  82   1.0000       0.042595         1.1591   69-A'
  83   1.0000       0.052185         1.4200   15-A"
  84   1.0000       0.056833         1.5465   16-A"
  85   1.0000       0.063223         1.7204   17-A"
  86   1.0000       0.090256         2.4560   18-A"
  87   0.0000       0.136575         3.7164   70-A'
  88   0.0000       0.181706         4.9445   71-A'
  89   0.0000       0.182051         4.9539   72-A'
  90   0.0000       0.194479         5.2920   19-A"
  91   0.0000       0.197485         5.3738   73-A'

MULLIKEN ATOMIC CHARGES AND SPIN POPULATIONS
--------------------------------------------
   0 Cu:    0.141838    0.374177
   1 S :   -0.397712    0.158091
   2 C :    0.033888   -0.007558
   3 S :   -0.376530    0.157071
   4 C :    0.030437   -0.007946
   5 S :   -0.451710    0.167903
   6 C :    0.000800   -0.008006
   7 S :   -0.471835    0.168775
   8 C :   -0.009026   -0.008326
   9 C :   -0.036637   -0.000637
  10 C :   -0.114435   -0.001118
  11 C :   -0.082219   -0.000141
  12 H :    0.076561    0.002644
  13 C :   -0.139002   -0.001279
  14 H :    0.042217    0.001220
  15 H :    0.009936    0.002023
  16 H :   -0.001482    0.000769
  17 C :   -0.100694   -0.001385
  18 C :   -0.067756   -0.001087
  19 C :   -0.107445   -0.000503
  20 H :    0.072861    0.002467
  21 C :   -0.150818   -0.001101
  22 H :    0.055194    0.001535
  23 H :    0.024579    0.001583
  24 H :    0.018993    0.000829
Sum of atomic charges         :   -2.0000000

LOEWDIN ATOMIC CHARGES AND SPIN POPULATIONS
-------------------------------------------
   0 Cu:   -0.892449    0.440919
   1 S :    0.022276    0.120353
   2 C :   -0.023505    0.005001
   3 S :    0.031745    0.119788
   4 C :   -0.014605    0.004856
   5 S :    0.000024    0.128023
   6 C :   -0.050141    0.005089
   7 S :   -0.006839    0.128653
   8 C :   -0.059422    0.004890
   9 C :    0.239090    0.003629
  10 C :    0.338789    0.004362
  11 C :    0.297104    0.000599
  12 H :   -0.460015    0.007330
  13 C :    0.283134   -0.000562
  14 H :   -0.423534    0.005303
  15 H :   -0.388650    0.000677
  16 H :   -0.392049    0.000150
  17 C :    0.330498    0.004123
  18 C :    0.267691    0.003708
  19 C :    0.306851    0.000262
  20 H :   -0.456772    0.006980
  21 C :    0.296462   -0.000414
  22 H :   -0.434046    0.005722
  23 H :   -0.404688    0.000425
  24 H :   -0.406948    0.000133

  Mayer bond orders larger than 0.100000
B(  0-Cu,  1-S ) :   0.6869 B(  0-Cu,  3-S ) :   0.6804 B(  0-Cu,  5-S ) :   0.7146
B(  0-Cu,  7-S ) :   0.7182 B(  1-S ,  2-C ) :   1.2246 B(  2-C ,  6-C ) :   1.2387
B(  2-C , 17-C ) :   1.2972 B(  3-S ,  4-C ) :   1.2504 B(  4-C ,  8-C ) :   1.2316
B(  4-C , 10-C ) :   1.2847 B(  5-S ,  6-C ) :   1.1501 B(  6-C , 18-C ) :   1.3443
B(  7-S ,  8-C ) :   1.1276 B(  8-C ,  9-C ) :   1.3648 B(  9-C , 13-C ) :   1.3248
B(  9-C , 14-H ) :   0.9772 B( 10-C , 11-C ) :   1.3620 B( 10-C , 12-H ) :   0.9498
B( 11-C , 13-C ) :   1.3322 B( 11-C , 15-H ) :   0.9666 B( 13-C , 16-H ) :   0.9857
B( 17-C , 19-C ) :   1.3666 B( 17-C , 20-H ) :   0.9579 B( 18-C , 21-C ) :   1.3465
B( 18-C , 22-H ) :   0.9756 B( 19-C , 21-C ) :   1.3377 B( 19-C , 23-H ) :   0.9755
B( 21-C , 24-H ) :   0.9884

FINAL SINGLE POINT ENERGY     -3686.805943517844

DIPOLE MOMENT
-------------
                                X             Y             Z
Electronic contribution:     -0.20350       0.79362      -0.00000
Nuclear contribution   :      0.40393      -1.00297       0.00000
                        -----------------------------------------
Total Dipole Moment    :      0.20043      -0.20936      -0.00000
                        -----------------------------------------
Magnitude (a.u.)       :      0.28984
Magnitude (Debye)      :      0.73670

Rotational constants in cm-1:     0.033397     0.004803     0.004199
Rotational constants in MHz :  1001.205763   143.989972   125.885545

                             ****ORCA TERMINATED NORMALLY****
TOTAL RUN TIME: 0 days 6 hours 15 minutes 47 seconds 228 msec
