                         Program Version 5.0.4 -  RELEASE  -
|  1> ! RIJCOSX nofrozencore ReducedPop printbasis
|  2> ! M06L ano-rcc-dzp autoaux
|  3>
|  4> %maxcore 5000
|  5> %basis
|  6> PCDTrimBas overlap
|  7> PCDTrimAuxJ Coulomb
|  8> PCDTrimAuxJK Coulomb
|  9> PCDTrimAuxC Coulomb
| 10> PCDThresh -1
| 11> end
| 12>
| 13> %basis
| 14> newgto Cu "ano-rcc-tzp" end
| 15> newgto S "ano-rcc-tzp" end
| 16> end
| 17>
| 18> %pal
| 19> nprocs 12
| 20> end
| 21>
| 22> % sym SymThresh 1e-2 end
| 23> * xyz -2 2
| 24> Cu 0.0 0.0 0.0
| 25> S 1.3155108950925563 -1.775258243243517 -0.700045186294944
| 26> C 0.2146314771638161 -2.82968117611641 -1.5453829520209321
| 27> S 1.827633105433749 1.0672356009408315 0.9449529585424101
| 28> C 1.1831616386269683 2.553523309037359 1.5874492218607947
| 29> S -1.827487836995645 -1.0668387315166379 -0.9456835252683369
| 30> C -1.1855310288152803 -2.559996418626751 -1.575533366944791
| 31> S -1.3156561635306598 1.7748613738193237 0.7007757530208708
| 32> C -0.21226225909450658 2.8361538154813655 1.5334679627053145
| 33> C -0.6583351376130379 4.070009367893164 2.0333596212222056
| 34> C 2.009328077364851 3.4296464867215635 2.3093394620030874
| 35> C 1.536101838369522 4.623382888580385 2.8403255910850915
| 36> H 3.1013292870605365 3.286713564351643 2.195421543891172
| 37> C 0.1878653640568666 4.946747396177139 2.7013189250554026
| 38> H -1.753564491814938 4.195075036588824 2.137055450203878
| 39> H 2.252709075500889 5.392121104061492 3.17623488765765
| 40> H -0.2409877657098902 5.775334574795954 3.290217883722991
| 41> C 0.6550796607115856 -4.0789028080462835 -2.016986294792094
| 42> C -2.006070362916366 -3.420746933650773 -2.3257240412382196
| 43> C -0.18951374774373747 -4.951250735603088 -2.693029070157061
| 44> H 1.767930060119971 -4.155828694466243 -2.2093010552347083
| 45> C -1.5344555201106809 -4.618885191847671 -2.8486050587787988
| 46> H -3.115710844344493 -3.326004022180873 -2.123096798750537
| 47> H 0.25495705631636534 -5.737173729221807 -3.360465608319721
| 48> H -2.266661273716755 -5.430241006984396 -3.106063186409258
| 49> *
| 50>
| 51> % eprnmr
| 52> gtensor true
| 53> Nuclei = all H {aiso,adip,aorb,fgrad,rho}
| 54> Nuclei = all Cu {aiso,adip,aorb,fgrad,rho}
| 55> end
| 56>
| 57>                          ****END OF INPUT****

CARTESIAN COORDINATES (ANGSTROEM)
---------------------------------
  Cu    -0.000000    0.000000    0.000000
  S      0.212784    1.601525   -1.661931
  C      0.049033    0.711421   -3.151642
  S      0.211947    1.601635    1.661931
  C      0.062681    0.709628    3.151642
  S     -0.212784   -1.601525   -1.661931
  C     -0.049033   -0.711421   -3.151642
  S     -0.211947   -1.601635    1.661931
  C     -0.062681   -0.709628    3.151642
  C     -0.219560   -1.361050    4.385461
  C      0.219560    1.361050    4.385461
  C      0.110692    0.687862    5.596188
  H      0.143361    2.465579    4.375043
  C     -0.110692   -0.687862    5.596188
  H     -0.143361   -2.465579    4.375043
  H     -0.009459    1.262736    6.530201
  H      0.009459   -1.262736    6.530201
  C      0.238320    1.358586   -4.385460
  C     -0.238320   -1.358586   -4.385460
  C      0.120181    0.686616   -5.596188
  H      0.060563    2.476455   -4.375043
  C     -0.120181   -0.686616   -5.596188
  H     -0.060563   -2.476455   -4.375043
  H     -0.089879    1.273300   -6.530201
  H      0.089879   -1.273300   -6.530201

 Total Charge           Charge          ....   -2
 Multiplicity           Mult            ....    2
 Number of Electrons    NEL             ....  175
 Basis Dimension        Dim             ....  475

ORBITAL ENERGIES
----------------
                 SPIN UP ORBITALS
  NO   OCC          E(Eh)            E(eV)    Irrep
   0   1.0000    -318.183630     -8658.2167    1-A
   1   1.0000     -88.017326     -2395.0732    1-B
   2   1.0000     -88.017318     -2395.0730    2-A
   3   1.0000     -88.016707     -2395.0564    2-B
   4   1.0000     -88.016697     -2395.0561    3-A
   5   1.0000     -38.028839     -1034.8173    4-A
   6   1.0000     -33.531971      -912.4513    3-B
   7   1.0000     -33.531107      -912.4278    5-A
   8   1.0000     -33.517397      -912.0547    4-B
   9   1.0000      -9.836251      -267.6580    6-A
  10   1.0000      -9.835929      -267.6492    5-B
  11   1.0000      -9.835062      -267.6256    7-A
  12   1.0000      -9.834736      -267.6168    6-B
  13   1.0000      -9.827037      -267.4073    8-A
  14   1.0000      -9.826612      -267.3957    7-B
  15   1.0000      -9.825953      -267.3778    9-A
  16   1.0000      -9.825525      -267.3661    8-B
  17   1.0000      -9.822378      -267.2805    9-B
  18   1.0000      -9.822375      -267.2804   10-A
  19   1.0000      -9.819951      -267.2144   10-B
  20   1.0000      -9.819947      -267.2143   11-A
  21   1.0000      -7.585969      -206.4247   11-B
  22   1.0000      -7.585961      -206.4245   12-A
  23   1.0000      -7.585378      -206.4086   12-B
  24   1.0000      -7.585369      -206.4084   13-A
  25   1.0000      -5.509158      -149.9118   13-B
  26   1.0000      -5.509158      -149.9118   14-A
  27   1.0000      -5.508571      -149.8958   14-B
  28   1.0000      -5.508570      -149.8958   15-A
  29   1.0000      -5.503844      -149.7672   15-B
  30   1.0000      -5.503844      -149.7672   16-A
  31   1.0000      -5.503281      -149.7519   16-B
  32   1.0000      -5.503281      -149.7519   17-A
  33   1.0000      -5.502100      -149.7198   18-A
  34   1.0000      -5.502100      -149.7197   17-B
  35   1.0000      -5.501468      -149.7026   19-A
  36   1.0000      -5.501468      -149.7025   18-B
  37   1.0000      -4.026429      -109.5647   20-A
  38   1.0000      -2.547855       -69.3307   19-B
  39   1.0000      -2.546286       -69.2880   21-A
  40   1.0000      -2.518968       -68.5446   20-B
  41   1.0000      -0.590940       -16.0803   22-A
  42   1.0000      -0.590817       -16.0770   23-A
  43   1.0000      -0.505574       -13.7574   24-A
  44   1.0000      -0.504383       -13.7249   25-A
  45   1.0000      -0.490639       -13.3510   21-B
  46   1.0000      -0.489802       -13.3282   22-B
  47   1.0000      -0.410799       -11.1784   23-B
  48   1.0000      -0.408141       -11.1061   24-B
  49   1.0000      -0.388463       -10.5706   26-A
  50   1.0000      -0.381599       -10.3838   27-A
  51   1.0000      -0.320257        -8.7146   28-A
  52   1.0000      -0.316564        -8.6141   29-A
  53   1.0000      -0.298654        -8.1268   25-B
  54   1.0000      -0.294393        -8.0108   26-B
  55   1.0000      -0.229230        -6.2377   30-A
  56   1.0000      -0.222298        -6.0490   31-A
  57   1.0000      -0.190735        -5.1902   32-A
  58   1.0000      -0.189745        -5.1632   33-A
  59   1.0000      -0.172829        -4.7029   27-B
  60   1.0000      -0.166445        -4.5292   28-B
  61   1.0000      -0.153866        -4.1869   29-B
  62   1.0000      -0.150227        -4.0879   30-B
  63   1.0000      -0.130533        -3.5520   34-A
  64   1.0000      -0.112480        -3.0607   31-B
  65   1.0000      -0.110627        -3.0103   35-A
  66   1.0000      -0.107221        -2.9176   32-B
  67   1.0000      -0.084769        -2.3067   36-A
  68   1.0000      -0.074516        -2.0277   33-B
  69   1.0000      -0.069507        -1.8914   34-B
  70   1.0000      -0.063274        -1.7218   37-A
  71   1.0000      -0.040261        -1.0955   35-B
  72   1.0000      -0.034047        -0.9265   36-B
  73   1.0000      -0.031544        -0.8584   38-A
  74   1.0000      -0.028773        -0.7830   37-B
  75   1.0000      -0.028084        -0.7642   39-A
  76   1.0000      -0.021145        -0.5754   40-A
  77   1.0000      -0.005821        -0.1584   41-A
  78   1.0000      -0.002226        -0.0606   42-A
  79   1.0000      -0.000204        -0.0055   38-B
  80   1.0000       0.016221         0.4414   43-A
  81   1.0000       0.016888         0.4595   44-A
  82   1.0000       0.032712         0.8901   39-B
  83   1.0000       0.047093         1.2815   45-A
  84   1.0000       0.049439         1.3453   46-A
  85   1.0000       0.060230         1.6389   40-B
  86   1.0000       0.085054         2.3144   41-B
  87   1.0000       0.103033         2.8037   42-B
  88   0.0000       0.180897         4.9224   47-A
  89   0.0000       0.181164         4.9297   48-A
  90   0.0000       0.190677         5.1886   43-B
  91   0.0000       0.195838         5.3290   44-B
  92   0.0000       0.196312         5.3419   45-B

                 SPIN DOWN ORBITALS
  NO   OCC          E(Eh)            E(eV)    Irrep
   0   1.0000    -318.183456     -8658.2120    1-A
   1   1.0000     -88.016253     -2395.0440    1-B
   2   1.0000     -88.016245     -2395.0438    2-A
   3   1.0000     -88.015633     -2395.0271    2-B
   4   1.0000     -88.015623     -2395.0269    3-A
   5   1.0000     -38.012979     -1034.3858    4-A
   6   1.0000     -33.516823      -912.0391    3-B
   7   1.0000     -33.515990      -912.0165    5-A
   8   1.0000     -33.513068      -911.9369    4-B
   9   1.0000      -9.836367      -267.6612    6-A
  10   1.0000      -9.836045      -267.6524    5-B
  11   1.0000      -9.835178      -267.6288    7-A
  12   1.0000      -9.834851      -267.6199    6-B
  13   1.0000      -9.827014      -267.4066    8-A
  14   1.0000      -9.826588      -267.3951    7-B
  15   1.0000      -9.825930      -267.3772    9-A
  16   1.0000      -9.825502      -267.3655    8-B
  17   1.0000      -9.822323      -267.2790    9-B
  18   1.0000      -9.822320      -267.2789   10-A
  19   1.0000      -9.819893      -267.2129   10-B
  20   1.0000      -9.819889      -267.2128   11-A
  21   1.0000      -7.585235      -206.4047   11-B
  22   1.0000      -7.585227      -206.4045   12-A
  23   1.0000      -7.584644      -206.3887   12-B
  24   1.0000      -7.584635      -206.3884   13-A
  25   1.0000      -5.508225      -149.8864   13-B
  26   1.0000      -5.508224      -149.8864   14-A
  27   1.0000      -5.507636      -149.8704   14-B
  28   1.0000      -5.507635      -149.8704   15-A
  29   1.0000      -5.501607      -149.7063   15-B
  30   1.0000      -5.501607      -149.7063   16-A
  31   1.0000      -5.501273      -149.6972   17-A
  32   1.0000      -5.501272      -149.6972   16-B
  33   1.0000      -5.501037      -149.6908   17-B
  34   1.0000      -5.501037      -149.6908   18-A
  35   1.0000      -5.500645      -149.6802   19-A
  36   1.0000      -5.500645      -149.6801   18-B
  37   1.0000      -3.992739      -108.6479   20-A
  38   1.0000      -2.507298       -68.2270   19-B
  39   1.0000      -2.505816       -68.1867   20-B
  40   1.0000      -2.504254       -68.1442   21-A
  41   1.0000      -0.590566       -16.0701   22-A
  42   1.0000      -0.590454       -16.0671   23-A
  43   1.0000      -0.504230       -13.7208   24-A
  44   1.0000      -0.503104       -13.6902   25-A
  45   1.0000      -0.489568       -13.3218   21-B
  46   1.0000      -0.488716       -13.2986   22-B
  47   1.0000      -0.406816       -11.0700   23-B
  48   1.0000      -0.404057       -10.9949   24-B
  49   1.0000      -0.385191       -10.4816   26-A
  50   1.0000      -0.378362       -10.2957   27-A
  51   1.0000      -0.319034        -8.6813   28-A
  52   1.0000      -0.315139        -8.5754   29-A
  53   1.0000      -0.296820        -8.0769   25-B
  54   1.0000      -0.292175        -7.9505   26-B
  55   1.0000      -0.228638        -6.2215   30-A
  56   1.0000      -0.221631        -6.0309   31-A
  57   1.0000      -0.189767        -5.1638   32-A
  58   1.0000      -0.188847        -5.1388   33-A
  59   1.0000      -0.172209        -4.6861   27-B
  60   1.0000      -0.165630        -4.5070   28-B
  61   1.0000      -0.153352        -4.1729   29-B
  62   1.0000      -0.149218        -4.0604   30-B
  63   1.0000      -0.129180        -3.5152   34-A
  64   1.0000      -0.111997        -3.0476   31-B
  65   1.0000      -0.109637        -2.9834   35-A
  66   1.0000      -0.106436        -2.8963   32-B
  67   1.0000      -0.083420        -2.2700   36-A
  68   1.0000      -0.073028        -1.9872   33-B
  69   1.0000      -0.061685        -1.6785   37-A
  70   1.0000      -0.057933        -1.5764   34-B
  71   1.0000      -0.033976        -0.9245   35-B
  72   1.0000      -0.029772        -0.8101   36-B
  73   1.0000      -0.026214        -0.7133   38-A
  74   1.0000      -0.023439        -0.6378   39-A
  75   1.0000      -0.020321        -0.5530   40-A
  76   1.0000      -0.004689        -0.1276   37-B
  77   1.0000       0.003963         0.1078   41-A
  78   1.0000       0.008439         0.2296   42-A
  79   1.0000       0.011759         0.3200   38-B
  80   1.0000       0.023706         0.6451   43-A
  81   1.0000       0.031913         0.8684   44-A
  82   1.0000       0.041040         1.1168   39-B
  83   1.0000       0.050011         1.3609   45-A
  84   1.0000       0.055048         1.4979   46-A
  85   1.0000       0.062065         1.6889   40-B
  86   1.0000       0.089203         2.4273   41-B
  87   0.0000       0.136030         3.7016   42-B
  88   0.0000       0.181960         4.9514   47-A
  89   0.0000       0.182169         4.9571   48-A
  90   0.0000       0.190712         5.1895   43-B
  91   0.0000       0.196624         5.3504   44-B

MULLIKEN ATOMIC CHARGES AND SPIN POPULATIONS
--------------------------------------------
   0 Cu:    0.140934    0.374710
   1 S :   -0.409882    0.163374
   2 C :    0.036308   -0.007976
   3 S :   -0.417074    0.163697
   4 C :    0.030023   -0.007780
   5 S :   -0.409882    0.163374
   6 C :    0.036308   -0.007976
   7 S :   -0.417074    0.163697
   8 C :    0.030023   -0.007780
   9 C :   -0.091214   -0.001396
  10 C :   -0.091214   -0.001396
  11 C :   -0.126019   -0.000848
  12 H :    0.049683    0.001783
  13 C :   -0.126019   -0.000848
  14 H :    0.049683    0.001783
  15 H :    0.020192    0.001130
  16 H :    0.020192    0.001130
  17 C :   -0.090249   -0.001305
  18 C :   -0.090249   -0.001305
  19 C :   -0.113933   -0.000803
  20 H :    0.034033    0.001602
  21 C :   -0.113933   -0.000803
  22 H :    0.034033    0.001602
  23 H :    0.007664    0.001166
  24 H :    0.007664    0.001166
Sum of atomic charges         :   -2.0000000

LOEWDIN ATOMIC CHARGES AND SPIN POPULATIONS
-------------------------------------------
   0 Cu:   -0.893583    0.441734
   1 S :    0.009460    0.124448
   2 C :   -0.042141    0.004986
   3 S :    0.009715    0.124629
   4 C :   -0.040081    0.005087
   5 S :    0.009460    0.124448
   6 C :   -0.042141    0.004986
   7 S :    0.009715    0.124629
   8 C :   -0.040081    0.005087
   9 C :    0.294553    0.003835
  10 C :    0.294553    0.003835
  11 C :    0.296869   -0.000122
  12 H :   -0.430316    0.006152
  13 C :    0.296869   -0.000122
  14 H :   -0.430316    0.006152
  15 H :   -0.406386    0.000228
  16 H :   -0.406386    0.000228
  17 C :    0.281255    0.003726
  18 C :    0.281255    0.003726
  19 C :    0.280006   -0.000110
  20 H :   -0.412468    0.006014
  21 C :    0.280006   -0.000110
  22 H :   -0.412468    0.006014
  23 H :   -0.393674    0.000259
  24 H :   -0.393674    0.000259

  Mayer bond orders larger than 0.100000
B(  0-Cu,  1-S ) :   0.7004 B(  0-Cu,  3-S ) :   0.7018 B(  0-Cu,  5-S ) :   0.7004
B(  0-Cu,  7-S ) :   0.7018 B(  1-S ,  2-C ) :   1.1886 B(  2-C ,  6-C ) :   1.2373
B(  2-C , 17-C ) :   1.3153 B(  3-S ,  4-C ) :   1.1861 B(  4-C ,  8-C ) :   1.2411
B(  4-C , 10-C ) :   1.3173 B(  5-S ,  6-C ) :   1.1886 B(  6-C , 18-C ) :   1.3153
B(  7-S ,  8-C ) :   1.1861 B(  8-C ,  9-C ) :   1.3173 B(  9-C , 13-C ) :   1.3617
B(  9-C , 14-H ) :   0.9808 B( 10-C , 11-C ) :   1.3617 B( 10-C , 12-H ) :   0.9808
B( 11-C , 13-C ) :   1.3323 B( 11-C , 15-H ) :   0.9945 B( 13-C , 16-H ) :   0.9945
B( 17-C , 19-C ) :   1.3610 B( 17-C , 20-H ) :   0.9902 B( 18-C , 21-C ) :   1.3610
B( 18-C , 22-H ) :   0.9902 B( 19-C , 21-C ) :   1.3248 B( 19-C , 23-H ) :   1.0001
B( 21-C , 24-H ) :   1.0001

FINAL SINGLE POINT ENERGY     -3686.895733749085

DIPOLE MOMENT
-------------
                                X             Y             Z
Electronic contribution:     -0.00000      -0.00000       0.11165
Nuclear contribution   :     -0.00000       0.00000      -0.00000
                        -----------------------------------------
Total Dipole Moment    :     -0.00000      -0.00000       0.11165
                        -----------------------------------------
Magnitude (a.u.)       :      0.11165
Magnitude (Debye)      :      0.28378

Rotational constants in cm-1:     0.033382     0.004803     0.004200
Rotational constants in MHz :  1000.762686   143.992877   125.919615

                             ****ORCA TERMINATED NORMALLY****
TOTAL RUN TIME: 0 days 6 hours 47 minutes 5 seconds 229 msec
