                         Program Version 5.0.4 -  RELEASE  -
|  1> ! RIJCOSX nofrozencore ReducedPop printbasis
|  2> ! M06L ano-rcc-dzp autoaux
|  3>
|  4> %maxcore 5000
|  5> %basis
|  6> PCDTrimBas overlap
|  7> PCDTrimAuxJ Coulomb
|  8> PCDTrimAuxJK Coulomb
|  9> PCDTrimAuxC Coulomb
| 10> PCDThresh -1
| 11> end
| 12>
| 13> %basis
| 14> newgto Cu "ano-rcc-tzp" end
| 15> newgto S "ano-rcc-tzp" end
| 16> end
| 17>
| 18> %pal
| 19> nprocs 12
| 20> end
| 21>
| 22> % sym SymThresh 1e-2 end
| 23> * xyz -2 2
| 24> Cu 0.0009880241456940453 -4.551946994027312e-06 0.0023679004555310417
| 25> S 0.549313936623963 1.5541478847673345 -2.0158770990598374
| 26> C -0.656978388716932 0.6913483995416888 -3.0479976882561854
| 27> S 1.7803771902467636 1.392176880647893 1.2690795168103306
| 28> C 1.5373639279628433 0.42073556603169127 2.7686199625222403
| 29> S -1.7887588271609167 -1.4010738125537763 -1.2700387411330911
| 30> C -1.5373758282274288 -0.4213527652216127 -2.767330492653006
| 31> S -0.5440424160408852 -1.5458855246915855 2.0107717067418216
| 32> C 0.6575276908319234 -0.6911037492921072 3.0487850093100417
| 33> C 0.722145572082487 -1.2272735627807005 4.350786898920151
| 34> C 2.3638049083452657 0.8468797661598703 3.8288806332516865
| 35> C 2.3957110535617705 0.2910426663104087 5.094902948130599
| 36> H 3.020533618351167 1.6822703559235341 3.6080133519642517
| 37> C 1.5497691069920856 -0.7777465328928747 5.36380795036428
| 38> H 0.057433479628769726 -2.0616649051786506 4.550464207994437
| 39> H 3.0688969528797814 0.6899160508184409 5.847761996859848
| 40> H 1.527645686279486 -1.2573767526252415 6.337747305849239
| 41> C -0.7216903824886713 1.2277682093858642 -4.350752647355487
| 42> C -2.363502399846255 -0.8467161243265303 -3.828508930469335
| 43> C -1.5490980735842743 0.7783088638042417 -5.363410143738239
| 44> H -0.056748644654552156 2.062050147805625 -4.549647652928046
| 45> C -2.394789651676211 -0.29032402500901494 -5.094248905895559
| 46> H -3.020414370857964 -1.6820314895718889 -3.6082333608309285
| 47> H -1.5271972183336977 1.2577489428764275 -6.33746695621303
| 48> H -3.0679499759367603 -0.6891209347963018 -5.847203905307571
| 49> *
| 50>
| 51> % eprnmr
| 52> gtensor true
| 53> Nuclei = all H {aiso,adip,aorb,fgrad,rho}
| 54> Nuclei = all Cu {aiso,adip,aorb,fgrad,rho}
| 55> end
| 56>
| 57>                          ****END OF INPUT****

CARTESIAN COORDINATES (ANGSTROEM)
---------------------------------
  Cu     0.000000   -0.000000    0.002562
  S      0.000000    1.920689   -1.757619
  C      0.000000    0.723183   -3.110712
  S      0.000000    1.909531    1.754250
  C      0.000000    0.722632    3.111786
  S      0.000000   -1.920689   -1.757619
  C      0.000000   -0.723183   -3.110712
  S      0.000000   -1.909531    1.754250
  C      0.000000   -0.722632    3.111786
  C      0.000000   -1.348105    4.375350
  C      0.000000    1.348105    4.375350
  C      0.000000    0.694665    5.594380
  H      0.000000    2.433374    4.364017
  C      0.000000   -0.694665    5.594380
  H      0.000000   -2.433374    4.364017
  H      0.000000    1.265651    6.517992
  H      0.000000   -1.265651    6.517992
  C      0.000000    1.348311   -4.375041
  C      0.000000   -1.348311   -4.375041
  C      0.000000    0.694554   -5.593635
  H      0.000000    2.433502   -4.363610
  C      0.000000   -0.694554   -5.593635
  H      0.000000   -2.433502   -4.363610
  H      0.000000    1.265364   -6.517379
  H      0.000000   -1.265364   -6.517379

 Total Charge           Charge          ....   -2
 Multiplicity           Mult            ....    2
 Number of Electrons    NEL             ....  175
 Basis Dimension        Dim             ....  475

ORBITAL ENERGIES
----------------
                 SPIN UP ORBITALS
  NO   OCC          E(Eh)            E(eV)    Irrep
   0   1.0000    -318.177921     -8658.0614    1-A1
   1   1.0000     -88.025347     -2395.2915    1-B2
   2   1.0000     -88.025346     -2395.2914    2-A1
   3   1.0000     -88.025018     -2395.2825    2-B2
   4   1.0000     -88.025016     -2395.2825    3-A1
   5   1.0000     -38.021465     -1034.6167    4-A1
   6   1.0000     -33.525124      -912.2650    5-A1
   7   1.0000     -33.524831      -912.2570    3-B2
   8   1.0000     -33.511621      -911.8976    1-B1
   9   1.0000      -9.846771      -267.9443    6-A1
  10   1.0000      -9.846505      -267.9370    4-B2
  11   1.0000      -9.846498      -267.9368    7-A1
  12   1.0000      -9.846229      -267.9295    5-B2
  13   1.0000      -9.826441      -267.3911    8-A1
  14   1.0000      -9.826222      -267.3851    9-A1
  15   1.0000      -9.825997      -267.3790    6-B2
  16   1.0000      -9.825776      -267.3730    7-B2
  17   1.0000      -9.818530      -267.1758    8-B2
  18   1.0000      -9.818526      -267.1757   10-A1
  19   1.0000      -9.818357      -267.1711    9-B2
  20   1.0000      -9.818353      -267.1710   11-A1
  21   1.0000      -7.591936      -206.5871   10-B2
  22   1.0000      -7.591930      -206.5869   12-A1
  23   1.0000      -7.591553      -206.5767   11-B2
  24   1.0000      -7.591547      -206.5765   13-A1
  25   1.0000      -5.515552      -150.0858   12-B2
  26   1.0000      -5.515552      -150.0858   14-A1
  27   1.0000      -5.515196      -150.0761   13-B2
  28   1.0000      -5.515196      -150.0761   15-A1
  29   1.0000      -5.510448      -149.9469   14-B2
  30   1.0000      -5.510448      -149.9469   16-A1
  31   1.0000      -5.510064      -149.9365   15-B2
  32   1.0000      -5.510064      -149.9365   17-A1
  33   1.0000      -5.507580      -149.8689    1-A2
  34   1.0000      -5.507579      -149.8689    2-B1
  35   1.0000      -5.507186      -149.8582    2-A2
  36   1.0000      -5.507186      -149.8582    3-B1
  37   1.0000      -4.023697      -109.4904   18-A1
  38   1.0000      -2.544537       -69.2404   19-A1
  39   1.0000      -2.543698       -69.2175   16-B2
  40   1.0000      -2.518421       -68.5297    4-B1
  41   1.0000      -0.590500       -16.0683   20-A1
  42   1.0000      -0.590140       -16.0585   21-A1
  43   1.0000      -0.499552       -13.5935   22-A1
  44   1.0000      -0.498698       -13.5703   23-A1
  45   1.0000      -0.492600       -13.4043   17-B2
  46   1.0000      -0.492207       -13.3936   18-B2
  47   1.0000      -0.409340       -11.1387   19-B2
  48   1.0000      -0.407130       -11.0786   20-B2
  49   1.0000      -0.377883       -10.2827   24-A1
  50   1.0000      -0.372876       -10.1465   25-A1
  51   1.0000      -0.327287        -8.9059   26-A1
  52   1.0000      -0.326517        -8.8850   27-A1
  53   1.0000      -0.301570        -8.2061   21-B2
  54   1.0000      -0.298208        -8.1147   22-B2
  55   1.0000      -0.236348        -6.4314   28-A1
  56   1.0000      -0.234038        -6.3685   29-A1
  57   1.0000      -0.190335        -5.1793   30-A1
  58   1.0000      -0.189081        -5.1452   31-A1
  59   1.0000      -0.176320        -4.7979   23-B2
  60   1.0000      -0.173864        -4.7311   24-B2
  61   1.0000      -0.146331        -3.9819   25-B2
  62   1.0000      -0.144376        -3.9287   26-B2
  63   1.0000      -0.122341        -3.3291   32-A1
  64   1.0000      -0.117565        -3.1991    5-B1
  65   1.0000      -0.117186        -3.1888    6-B1
  66   1.0000      -0.114375        -3.1123   33-A1
  67   1.0000      -0.075970        -2.0672   34-A1
  68   1.0000      -0.063712        -1.7337   35-A1
  69   1.0000      -0.062725        -1.7068   27-B2
  70   1.0000      -0.051505        -1.4015   28-B2
  71   1.0000      -0.039852        -1.0844   29-B2
  72   1.0000      -0.034660        -0.9431    7-B1
  73   1.0000      -0.033995        -0.9251    8-B1
  74   1.0000      -0.025314        -0.6888    3-A2
  75   1.0000      -0.021891        -0.5957    4-A2
  76   1.0000      -0.018528        -0.5042   36-A1
  77   1.0000      -0.005709        -0.1554   37-A1
  78   1.0000      -0.001486        -0.0404    5-A2
  79   1.0000       0.000336         0.0091    9-B1
  80   1.0000       0.010495         0.2856   38-A1
  81   1.0000       0.016814         0.4575   30-B2
  82   1.0000       0.033942         0.9236   39-A1
  83   1.0000       0.044995         1.2244    6-A2
  84   1.0000       0.046383         1.2621    7-A2
  85   1.0000       0.063838         1.7371   10-B1
  86   1.0000       0.073515         2.0004   31-B2
  87   1.0000       0.078302         2.1307   11-B1
  88   0.0000       0.179744         4.8911   40-A1
  89   0.0000       0.180046         4.8993   41-A1
  90   0.0000       0.196281         5.3411   32-B2
  91   0.0000       0.196556         5.3486   33-B2
  92   0.0000       0.198927         5.4131   12-B1

                 SPIN DOWN ORBITALS
  NO   OCC          E(Eh)            E(eV)    Irrep
   0   1.0000    -318.177770     -8658.0573    1-A1
   1   1.0000     -88.024260     -2395.2619    1-B2
   2   1.0000     -88.024259     -2395.2619    2-A1
   3   1.0000     -88.023932     -2395.2530    2-B2
   4   1.0000     -88.023930     -2395.2529    3-A1
   5   1.0000     -38.006956     -1034.2218    4-A1
   6   1.0000     -33.511247      -911.8874    5-A1
   7   1.0000     -33.510923      -911.8786    3-B2
   8   1.0000     -33.507740      -911.7919    1-B1
   9   1.0000      -9.846921      -267.9483    6-A1
  10   1.0000      -9.846655      -267.9411    4-B2
  11   1.0000      -9.846646      -267.9409    7-A1
  12   1.0000      -9.846378      -267.9336    5-B2
  13   1.0000      -9.826413      -267.3903    8-A1
  14   1.0000      -9.826193      -267.3843    9-A1
  15   1.0000      -9.825968      -267.3782    6-B2
  16   1.0000      -9.825747      -267.3722    7-B2
  17   1.0000      -9.818457      -267.1738    8-B2
  18   1.0000      -9.818453      -267.1737   10-A1
  19   1.0000      -9.818284      -267.1691    9-B2
  20   1.0000      -9.818279      -267.1690   11-A1
  21   1.0000      -7.591188      -206.5667   10-B2
  22   1.0000      -7.591183      -206.5666   12-A1
  23   1.0000      -7.590805      -206.5563   11-B2
  24   1.0000      -7.590799      -206.5561   13-A1
  25   1.0000      -5.514654      -150.0614   12-B2
  26   1.0000      -5.514653      -150.0613   14-A1
  27   1.0000      -5.514301      -150.0518   13-B2
  28   1.0000      -5.514300      -150.0517   15-A1
  29   1.0000      -5.508057      -149.8819   14-B2
  30   1.0000      -5.508057      -149.8819   16-A1
  31   1.0000      -5.507668      -149.8713   15-B2
  32   1.0000      -5.507667      -149.8713   17-A1
  33   1.0000      -5.506773      -149.8469    1-A2
  34   1.0000      -5.506772      -149.8469    2-B1
  35   1.0000      -5.506379      -149.8362    2-A2
  36   1.0000      -5.506379      -149.8362    3-B1
  37   1.0000      -3.991968      -108.6270   18-A1
  38   1.0000      -2.507723       -68.2386    4-B1
  39   1.0000      -2.504958       -68.1634   19-A1
  40   1.0000      -2.503925       -68.1353   16-B2
  41   1.0000      -0.590266       -16.0620   20-A1
  42   1.0000      -0.589912       -16.0523   21-A1
  43   1.0000      -0.498589       -13.5673   22-A1
  44   1.0000      -0.497770       -13.5450   23-A1
  45   1.0000      -0.491562       -13.3761   17-B2
  46   1.0000      -0.491193       -13.3660   18-B2
  47   1.0000      -0.405553       -11.0357   19-B2
  48   1.0000      -0.403350       -10.9757   20-B2
  49   1.0000      -0.373829       -10.1724   24-A1
  50   1.0000      -0.368835       -10.0365   25-A1
  51   1.0000      -0.326287        -8.8787   26-A1
  52   1.0000      -0.325339        -8.8529   27-A1
  53   1.0000      -0.299512        -8.1501   21-B2
  54   1.0000      -0.295916        -8.0523   22-B2
  55   1.0000      -0.235744        -6.4149   28-A1
  56   1.0000      -0.233361        -6.3501   29-A1
  57   1.0000      -0.189658        -5.1609   30-A1
  58   1.0000      -0.188457        -5.1282   31-A1
  59   1.0000      -0.175720        -4.7816   23-B2
  60   1.0000      -0.173185        -4.7126   24-B2
  61   1.0000      -0.145693        -3.9645   25-B2
  62   1.0000      -0.143626        -3.9083   26-B2
  63   1.0000      -0.121065        -3.2944   32-A1
  64   1.0000      -0.117517        -3.1978    5-B1
  65   1.0000      -0.117141        -3.1876    6-B1
  66   1.0000      -0.113329        -3.0838   33-A1
  67   1.0000      -0.074656        -2.0315   34-A1
  68   1.0000      -0.062232        -1.6934   35-A1
  69   1.0000      -0.060836        -1.6554   27-B2
  70   1.0000      -0.049222        -1.3394   28-B2
  71   1.0000      -0.033620        -0.9148    7-B1
  72   1.0000      -0.032975        -0.8973    8-B1
  73   1.0000      -0.023515        -0.6399    3-A2
  74   1.0000      -0.021052        -0.5728    4-A2
  75   1.0000      -0.011945        -0.3250   36-A1
  76   1.0000       0.003469         0.0944   29-B2
  77   1.0000       0.004033         0.1098   37-A1
  78   1.0000       0.009966         0.2712    5-A2
  79   1.0000       0.013129         0.3573    9-B1
  80   1.0000       0.024770         0.6740   30-B2
  81   1.0000       0.026542         0.7222   38-A1
  82   1.0000       0.041788         1.1371   39-A1
  83   1.0000       0.049233         1.3397    6-A2
  84   1.0000       0.049520         1.3475    7-A2
  85   1.0000       0.066389         1.8065   10-B1
  86   1.0000       0.081995         2.2312   11-B1
  87   0.0000       0.101986         2.7752   31-B2
  88   0.0000       0.180154         4.9022   40-A1
  89   0.0000       0.180426         4.9096   41-A1
  90   0.0000       0.197143         5.3645   32-B2
  91   0.0000       0.197440         5.3726   33-B2

MULLIKEN ATOMIC CHARGES AND SPIN POPULATIONS
--------------------------------------------
   0 Cu:    0.301475    0.356639
   1 S :   -0.482842    0.169563
   2 C :   -0.026866   -0.010463
   3 S :   -0.478332    0.169549
   4 C :   -0.024859   -0.010327
   5 S :   -0.482842    0.169563
   6 C :   -0.026866   -0.010463
   7 S :   -0.478332    0.169549
   8 C :   -0.024859   -0.010327
   9 C :   -0.041915   -0.000229
  10 C :   -0.041915   -0.000229
  11 C :   -0.137710   -0.000549
  12 H :    0.079557    0.001582
  13 C :   -0.137710   -0.000549
  14 H :    0.079557    0.001582
  15 H :    0.030143    0.000855
  16 H :    0.030143    0.000855
  17 C :   -0.040683   -0.000163
  18 C :   -0.040683   -0.000163
  19 C :   -0.137531   -0.000540
  20 H :    0.080155    0.001554
  21 C :   -0.137531   -0.000540
  22 H :    0.080155    0.001554
  23 H :    0.030147    0.000848
  24 H :    0.030147    0.000848
Sum of atomic charges         :   -2.0000000

LOEWDIN ATOMIC CHARGES AND SPIN POPULATIONS
-------------------------------------------
   0 Cu:   -0.552458    0.413977
   1 S :   -0.058121    0.132999
   2 C :   -0.020937    0.000944
   3 S :   -0.054403    0.132718
   4 C :   -0.022272    0.001118
   5 S :   -0.058121    0.132999
   6 C :   -0.020937    0.000944
   7 S :   -0.054403    0.132718
   8 C :   -0.022272    0.001118
   9 C :    0.296408    0.004457
  10 C :    0.296408    0.004457
  11 C :    0.313414    0.000076
  12 H :   -0.481316    0.007945
  13 C :    0.313414    0.000076
  14 H :   -0.481316    0.007945
  15 H :   -0.411459    0.000073
  16 H :   -0.411459    0.000073
  17 C :    0.295989    0.004488
  18 C :    0.295989    0.004488
  19 C :    0.313279    0.000084
  20 H :   -0.482954    0.008040
  21 C :    0.313279    0.000084
  22 H :   -0.482954    0.008040
  23 H :   -0.411399    0.000070
  24 H :   -0.411399    0.000070

  Mayer bond orders larger than 0.100000
B(  0-Cu,  1-S ) :   0.5691 B(  0-Cu,  3-S ) :   0.5776 B(  0-Cu,  5-S ) :   0.5691
B(  0-Cu,  7-S ) :   0.5776 B(  1-S ,  2-C ) :   1.1398 B(  2-C ,  6-C ) :   1.2822
B(  2-C , 17-C ) :   1.3090 B(  3-S ,  4-C ) :   1.1421 B(  4-C ,  8-C ) :   1.2807
B(  4-C , 10-C ) :   1.3092 B(  5-S ,  6-C ) :   1.1398 B(  6-C , 18-C ) :   1.3090
B(  7-S ,  8-C ) :   1.1421 B(  8-C ,  9-C ) :   1.3092 B(  9-C , 13-C ) :   1.3736
B(  9-C , 14-H ) :   0.9595 B( 10-C , 11-C ) :   1.3736 B( 10-C , 12-H ) :   0.9595
B( 11-C , 13-C ) :   1.3275 B( 11-C , 15-H ) :   0.9884 B( 13-C , 16-H ) :   0.9884
B( 17-C , 19-C ) :   1.3740 B( 17-C , 20-H ) :   0.9592 B( 18-C , 21-C ) :   1.3740
B( 18-C , 22-H ) :   0.9592 B( 19-C , 21-C ) :   1.3271 B( 19-C , 23-H ) :   0.9883
B( 21-C , 24-H ) :   0.9883

FINAL SINGLE POINT ENERGY     -3686.863611271919

DIPOLE MOMENT
-------------
                                X             Y             Z
Electronic contribution:      0.00000       0.00000       0.02967
Nuclear contribution   :      0.00000      -0.00000      -0.01119
                        -----------------------------------------
Total Dipole Moment    :      0.00000       0.00000       0.01849
                        -----------------------------------------
Magnitude (a.u.)       :      0.01849
Magnitude (Debye)      :      0.04699

Rotational constants in cm-1:     0.026494     0.004773     0.004045
Rotational constants in MHz :   794.256839   143.100666   121.254358

                             ****ORCA TERMINATED NORMALLY****
TOTAL RUN TIME: 0 days 6 hours 19 minutes 18 seconds 186 msec
