                         Program Version 5.0.4 -  RELEASE  -
|  1> ! RIJCOSX nofrozencore ReducedPop printbasis
|  2> ! M06L ano-rcc-dzp autoaux
|  3>
|  4> %maxcore 5000
|  5> %basis
|  6> PCDTrimBas overlap
|  7> PCDTrimAuxJ Coulomb
|  8> PCDTrimAuxJK Coulomb
|  9> PCDTrimAuxC Coulomb
| 10> PCDThresh -1
| 11> end
| 12>
| 13> %basis
| 14> newgto Cu "ano-rcc-tzp" end
| 15> newgto S "ano-rcc-tzp" end
| 16> end
| 17>
| 18> %pal
| 19> nprocs 12
| 20> end
| 21>
| 22> % sym SymThresh 1e-2 end
| 23> * xyz -2 2
| 24> Cu -2.3730946418075237e-06 -8.883444428424241e-06 -7.965728899989175e-06
| 25> S 2.3025713404237482 -0.26303566415433616 -0.058130148658597176
| 26> C 2.63790011642839 -1.4334146386494588 1.20244120452375
| 27> S 0.09558813325871209 1.7563354260290518 -1.5101538092358222
| 28> C -1.5814307137531205 2.090984132995111 -1.893683400774791
| 29> S -0.09557524361284003 -1.7562323586702384 1.5102675236877465
| 30> C 1.5814027966704387 -2.09123996769074 1.8933930247341004
| 31> S -2.302559487620955 0.2631294457751118 0.058233437180082545
| 32> C -2.637927071180841 1.4331608683608128 -1.202728143684411
| 33> C -3.9505854105450995 1.8846697453411116 -1.407260530661283
| 34> C -1.9050435258923886 3.158315951585819 -2.745058730236579
| 35> C -3.2037308410116236 3.6784075595141106 -2.8313575481424795
| 36> H -1.0916765231178123 3.6627297810989776 -3.256865389828238
| 37> C -4.23747600657433 3.0347521172283627 -2.155279246507475
| 38> H -4.748049413101795 1.3861268729667642 -0.865547963286306
| 39> H -3.403557619682362 4.581956488935801 -3.418696748844248
| 40> H -5.260131380455883 3.425971645307464 -2.204480889414454
| 41> C 3.95056489541155 -1.8848600283649155 1.4070480018393612
| 42> C 1.9050205676768386 -3.1585150062926073 2.744834114689379
| 43> C 4.237496665755458 -3.0345612826990003 2.155496641035093
| 44> H 4.748035340302122 -1.386272567889437 0.8653877354927842
| 45> C 3.2037485391418405 -3.678223581472699 2.8315638873206916
| 46> H 1.0916543804699388 -3.662908423740632 3.2566614547657107
| 47> H 5.260182553578797 -3.4255202733868653 2.20499092735499
| 48> H 3.403604425062813 -4.5815180175121535 3.419187826299447
| 49> *
| 50>
| 51> % eprnmr
| 52> gtensor true
| 53> Nuclei = all H {aiso,adip,aorb,fgrad,rho}
| 54> Nuclei = all Cu {aiso,adip,aorb,fgrad,rho}
| 55> end
| 56>
| 57>                          ****END OF INPUT****

CARTESIAN COORDINATES (ANGSTROEM)
---------------------------------
  Cu     0.000000    0.000000    0.000000
  S     -1.303515    1.032036    1.615597
  C     -2.324126    2.133300    0.711747
  S      1.303515   -1.032036    1.615597
  C      2.324126   -2.133300    0.711747
  S     -1.303515    1.032036   -1.615597
  C     -2.324126    2.133300   -0.711747
  S      1.303515   -1.032036   -1.615597
  C      2.324126   -2.133300   -0.711747
  C      3.301355   -2.888164   -1.378053
  C      3.301355   -2.888164    1.378053
  C      4.347242   -3.525282    0.696420
  H      3.302146   -2.871014    2.463249
  C      4.347242   -3.525282   -0.696420
  H      3.302146   -2.871014   -2.463249
  H      5.157168   -4.013115    1.250748
  H      5.157168   -4.013115   -1.250748
  C     -3.301355    2.888164    1.378053
  C     -3.301355    2.888164   -1.378053
  C     -4.347242    3.525282    0.696420
  H     -3.302146    2.871014    2.463249
  C     -4.347242    3.525282   -0.696420
  H     -3.302146    2.871014   -2.463249
  H     -5.157168    4.013115    1.250748
  H     -5.157168    4.013115   -1.250748

 Total Charge           Charge          ....   -2
 Multiplicity           Mult            ....    2
 Number of Electrons    NEL             ....  175
 Basis Dimension        Dim             ....  475

ORBITAL ENERGIES
----------------
                 SPIN UP ORBITALS
  NO   OCC          E(Eh)            E(eV)    Irrep
   0   1.0000    -318.181469     -8658.1580    1-Ag
   1   1.0000     -88.015105     -2395.0128    1-Bu
   2   1.0000     -88.015093     -2395.0124    1-Bg
   3   1.0000     -88.015090     -2395.0124    1-Au
   4   1.0000     -88.015057     -2395.0115    2-Ag
   5   1.0000     -38.026660     -1034.7580    3-Ag
   6   1.0000     -33.529732      -912.3904    2-Au
   7   1.0000     -33.528972      -912.3697    2-Bu
   8   1.0000     -33.515250      -911.9963    3-Bu
   9   1.0000      -9.834138      -267.6005    4-Bu
  10   1.0000      -9.834132      -267.6003    4-Ag
  11   1.0000      -9.833806      -267.5915    2-Bg
  12   1.0000      -9.833804      -267.5914    3-Au
  13   1.0000      -9.826914      -267.4039    5-Bu
  14   1.0000      -9.826914      -267.4039    5-Ag
  15   1.0000      -9.826484      -267.3922    3-Bg
  16   1.0000      -9.826484      -267.3922    4-Au
  17   1.0000      -9.818557      -267.1765    4-Bg
  18   1.0000      -9.818556      -267.1765    5-Au
  19   1.0000      -9.818553      -267.1764    6-Bu
  20   1.0000      -9.818552      -267.1764    6-Ag
  21   1.0000      -7.583549      -206.3589    6-Au
  22   1.0000      -7.583549      -206.3589    5-Bg
  23   1.0000      -7.583545      -206.3588    7-Bu
  24   1.0000      -7.583535      -206.3585    7-Ag
  25   1.0000      -5.506862      -149.8493    6-Bg
  26   1.0000      -5.506861      -149.8493    7-Au
  27   1.0000      -5.506861      -149.8493    8-Bu
  28   1.0000      -5.506861      -149.8493    8-Ag
  29   1.0000      -5.501446      -149.7020    7-Bg
  30   1.0000      -5.501446      -149.7020    8-Au
  31   1.0000      -5.501446      -149.7020    9-Bu
  32   1.0000      -5.501446      -149.7020    9-Ag
  33   1.0000      -5.499574      -149.6510    9-Au
  34   1.0000      -5.499574      -149.6510    8-Bg
  35   1.0000      -5.499574      -149.6510   10-Ag
  36   1.0000      -5.499574      -149.6510   10-Bu
  37   1.0000      -4.024323      -109.5074   11-Ag
  38   1.0000      -2.545637       -69.2703   10-Au
  39   1.0000      -2.544247       -69.2325   11-Bu
  40   1.0000      -2.516921       -68.4889   12-Bu
  41   1.0000      -0.588179       -16.0052   12-Ag
  42   1.0000      -0.588060       -16.0019   13-Bu
  43   1.0000      -0.503500       -13.7009   13-Ag
  44   1.0000      -0.502439       -13.6720   14-Bu
  45   1.0000      -0.488455       -13.2915   11-Au
  46   1.0000      -0.488201       -13.2846    9-Bg
  47   1.0000      -0.407224       -11.0811   12-Au
  48   1.0000      -0.404557       -11.0086   10-Bg
  49   1.0000      -0.388008       -10.5582   14-Ag
  50   1.0000      -0.381304       -10.3758   15-Bu
  51   1.0000      -0.322447        -8.7742   15-Ag
  52   1.0000      -0.319730        -8.7003   16-Bu
  53   1.0000      -0.299488        -8.1495   13-Au
  54   1.0000      -0.296039        -8.0556   11-Bg
  55   1.0000      -0.232184        -6.3180   16-Ag
  56   1.0000      -0.227181        -6.1819   17-Bu
  57   1.0000      -0.188892        -5.1400   17-Ag
  58   1.0000      -0.188085        -5.1181   18-Bu
  59   1.0000      -0.178099        -4.8463   14-Au
  60   1.0000      -0.175208        -4.7676   12-Bg
  61   1.0000      -0.145163        -3.9501   15-Au
  62   1.0000      -0.142412        -3.8752   13-Bg
  63   1.0000      -0.131754        -3.5852   18-Ag
  64   1.0000      -0.117058        -3.1853   19-Bu
  65   1.0000      -0.116709        -3.1758   19-Ag
  66   1.0000      -0.113818        -3.0972   20-Bu
  67   1.0000      -0.085223        -2.3190   20-Ag
  68   1.0000      -0.069381        -1.8879   16-Au
  69   1.0000      -0.065483        -1.7819   14-Bg
  70   1.0000      -0.061839        -1.6827   21-Bu
  71   1.0000      -0.038437        -1.0459   21-Ag
  72   1.0000      -0.036537        -0.9942   22-Bu
  73   1.0000      -0.032708        -0.8900   15-Bg
  74   1.0000      -0.029661        -0.8071   22-Ag
  75   1.0000      -0.024201        -0.6585   16-Bg
  76   1.0000      -0.018337        -0.4990   17-Au
  77   1.0000      -0.002221        -0.0604   17-Bg
  78   1.0000      -0.001277        -0.0347   23-Ag
  79   1.0000       0.001561         0.0425   24-Ag
  80   1.0000       0.018002         0.4899   25-Ag
  81   1.0000       0.018189         0.4949   23-Bu
  82   1.0000       0.034830         0.9478   18-Au
  83   1.0000       0.050947         1.3864   19-Au
  84   1.0000       0.053314         1.4507   18-Bg
  85   1.0000       0.062550         1.7021   24-Bu
  86   1.0000       0.086104         2.3430   26-Ag
  87   1.0000       0.105180         2.8621   19-Bg
  88   0.0000       0.180927         4.9233   27-Ag
  89   0.0000       0.180952         4.9240   25-Bu
  90   0.0000       0.196746         5.3537   20-Bg
  91   0.0000       0.196900         5.3579   26-Bu
  92   0.0000       0.196976         5.3600   20-Au

                 SPIN DOWN ORBITALS
  NO   OCC          E(Eh)            E(eV)    Irrep
   0   1.0000    -318.181295     -8658.1532    1-Ag
   1   1.0000     -88.014036     -2394.9837    1-Bu
   2   1.0000     -88.014024     -2394.9834    1-Bg
   3   1.0000     -88.014022     -2394.9833    1-Au
   4   1.0000     -88.013988     -2394.9824    2-Ag
   5   1.0000     -38.010798     -1034.3264    3-Ag
   6   1.0000     -33.514581      -911.9781    2-Au
   7   1.0000     -33.513866      -911.9586    2-Bu
   8   1.0000     -33.510909      -911.8782    3-Bu
   9   1.0000      -9.834256      -267.6037    4-Bu
  10   1.0000      -9.834251      -267.6036    4-Ag
  11   1.0000      -9.833925      -267.5947    2-Bg
  12   1.0000      -9.833922      -267.5946    3-Au
  13   1.0000      -9.826884      -267.4031    5-Bu
  14   1.0000      -9.826884      -267.4031    5-Ag
  15   1.0000      -9.826454      -267.3914    3-Bg
  16   1.0000      -9.826454      -267.3914    4-Au
  17   1.0000      -9.818503      -267.1751    4-Bg
  18   1.0000      -9.818503      -267.1750    5-Au
  19   1.0000      -9.818499      -267.1749    6-Bu
  20   1.0000      -9.818498      -267.1749    6-Ag
  21   1.0000      -7.582816      -206.3389    6-Au
  22   1.0000      -7.582816      -206.3389    5-Bg
  23   1.0000      -7.582813      -206.3388    7-Bu
  24   1.0000      -7.582801      -206.3385    7-Ag
  25   1.0000      -5.505934      -149.8241    6-Bg
  26   1.0000      -5.505934      -149.8241    7-Au
  27   1.0000      -5.505933      -149.8241    8-Bu
  28   1.0000      -5.505933      -149.8241    8-Ag
  29   1.0000      -5.499209      -149.6411    7-Bg
  30   1.0000      -5.499209      -149.6411    8-Au
  31   1.0000      -5.499209      -149.6411    9-Bu
  32   1.0000      -5.499209      -149.6411    9-Ag
  33   1.0000      -5.498750      -149.6286    9-Au
  34   1.0000      -5.498750      -149.6286    8-Bg
  35   1.0000      -5.498750      -149.6286   10-Ag
  36   1.0000      -5.498749      -149.6286   10-Bu
  37   1.0000      -3.990584      -108.5893   11-Ag
  38   1.0000      -2.505270       -68.1719   11-Bu
  39   1.0000      -2.503585       -68.1260   10-Au
  40   1.0000      -2.502097       -68.0855   12-Bu
  41   1.0000      -0.587814       -15.9952   12-Ag
  42   1.0000      -0.587705       -15.9923   13-Bu
  43   1.0000      -0.502221       -13.6661   13-Ag
  44   1.0000      -0.501230       -13.6392   14-Bu
  45   1.0000      -0.487411       -13.2631   11-Au
  46   1.0000      -0.487182       -13.2569    9-Bg
  47   1.0000      -0.403237       -10.9726   12-Au
  48   1.0000      -0.400470       -10.8973   10-Bg
  49   1.0000      -0.384760       -10.4699   14-Ag
  50   1.0000      -0.378125       -10.2893   15-Bu
  51   1.0000      -0.321230        -8.7411   15-Ag
  52   1.0000      -0.318181        -8.6581   16-Bu
  53   1.0000      -0.297705        -8.1010   13-Au
  54   1.0000      -0.293820        -7.9953   11-Bg
  55   1.0000      -0.231624        -6.3028   16-Ag
  56   1.0000      -0.226501        -6.1634   17-Bu
  57   1.0000      -0.187951        -5.1144   17-Ag
  58   1.0000      -0.187225        -5.0946   18-Bu
  59   1.0000      -0.177587        -4.8324   14-Au
  60   1.0000      -0.174345        -4.7442   12-Bg
  61   1.0000      -0.144496        -3.9319   15-Au
  62   1.0000      -0.140954        -3.8356   13-Bg
  63   1.0000      -0.130503        -3.5512   18-Ag
  64   1.0000      -0.116799        -3.1783   19-Bu
  65   1.0000      -0.116489        -3.1698   19-Ag
  66   1.0000      -0.112980        -3.0743   20-Bu
  67   1.0000      -0.083838        -2.2814   20-Ag
  68   1.0000      -0.067889        -1.8474   16-Au
  69   1.0000      -0.060177        -1.6375   21-Bu
  70   1.0000      -0.050920        -1.3856   14-Bg
  71   1.0000      -0.036347        -0.9891   21-Ag
  72   1.0000      -0.035630        -0.9696   22-Bu
  73   1.0000      -0.022882        -0.6227   22-Ag
  74   1.0000      -0.022555        -0.6138   15-Bg
  75   1.0000      -0.017444        -0.4747   17-Au
  76   1.0000      -0.002250        -0.0612   16-Bg
  77   1.0000       0.007508         0.2043   17-Bg
  78   1.0000       0.009387         0.2554   23-Ag
  79   1.0000       0.013846         0.3768   24-Ag
  80   1.0000       0.024971         0.6795   23-Bu
  81   1.0000       0.033826         0.9205   25-Ag
  82   1.0000       0.042840         1.1657   18-Au
  83   1.0000       0.053952         1.4681   19-Au
  84   1.0000       0.058803         1.6001   18-Bg
  85   1.0000       0.064464         1.7542   24-Bu
  86   1.0000       0.090300         2.4572   26-Ag
  87   0.0000       0.138109         3.7581   19-Bg
  88   0.0000       0.181910         4.9500   25-Bu
  89   0.0000       0.181920         4.9503   27-Ag
  90   0.0000       0.196948         5.3592   26-Bu
  91   0.0000       0.198367         5.3978   20-Bg

MULLIKEN ATOMIC CHARGES AND SPIN POPULATIONS
--------------------------------------------
   0 Cu:    0.145663    0.375205
   1 S :   -0.424590    0.162616
   2 C :    0.022666   -0.007541
   3 S :   -0.424590    0.162616
   4 C :    0.022666   -0.007541
   5 S :   -0.424590    0.162616
   6 C :    0.022666   -0.007541
   7 S :   -0.424590    0.162616
   8 C :    0.022666   -0.007541
   9 C :   -0.098168   -0.001919
  10 C :   -0.098168   -0.001919
  11 C :   -0.128770    0.000065
  12 H :    0.069304    0.002032
  13 C :   -0.128770    0.000065
  14 H :    0.069304    0.002032
  15 H :    0.023142    0.000946
  16 H :    0.023142    0.000946
  17 C :   -0.098168   -0.001919
  18 C :   -0.098168   -0.001919
  19 C :   -0.128770    0.000065
  20 H :    0.069304    0.002032
  21 C :   -0.128770    0.000065
  22 H :    0.069304    0.002032
  23 H :    0.023142    0.000946
  24 H :    0.023142    0.000946
Sum of atomic charges         :   -2.0000000

LOEWDIN ATOMIC CHARGES AND SPIN POPULATIONS
-------------------------------------------
   0 Cu:   -0.897500    0.441856
   1 S :    0.006206    0.124178
   2 C :   -0.035089    0.004654
   3 S :    0.006206    0.124178
   4 C :   -0.035089    0.004654
   5 S :    0.006206    0.124178
   6 C :   -0.035089    0.004654
   7 S :    0.006206    0.124178
   8 C :   -0.035089    0.004654
   9 C :    0.307496    0.003775
  10 C :    0.307496    0.003775
  11 C :    0.308016    0.000418
  12 H :   -0.452017    0.006198
  13 C :    0.308016    0.000418
  14 H :   -0.452017    0.006198
  15 H :   -0.410238    0.000313
  16 H :   -0.410238    0.000313
  17 C :    0.307496    0.003775
  18 C :    0.307496    0.003775
  19 C :    0.308016    0.000418
  20 H :   -0.452017    0.006198
  21 C :    0.308016    0.000418
  22 H :   -0.452017    0.006198
  23 H :   -0.410238    0.000313
  24 H :   -0.410238    0.000313

  Mayer bond orders larger than 0.100000
B(  0-Cu,  1-S ) :   0.6994 B(  0-Cu,  3-S ) :   0.6994 B(  0-Cu,  5-S ) :   0.6994
B(  0-Cu,  7-S ) :   0.6994 B(  1-S ,  2-C ) :   1.1787 B(  2-C ,  6-C ) :   1.2448
B(  2-C , 17-C ) :   1.3229 B(  3-S ,  4-C ) :   1.1787 B(  4-C ,  8-C ) :   1.2448
B(  4-C , 10-C ) :   1.3229 B(  5-S ,  6-C ) :   1.1787 B(  6-C , 18-C ) :   1.3229
B(  7-S ,  8-C ) :   1.1787 B(  8-C ,  9-C ) :   1.3229 B(  9-C , 13-C ) :   1.3584
B(  9-C , 14-H ) :   0.9685 B( 10-C , 11-C ) :   1.3584 B( 10-C , 12-H ) :   0.9685
B( 11-C , 13-C ) :   1.3429 B( 11-C , 15-H ) :   0.9915 B( 13-C , 16-H ) :   0.9915
B( 17-C , 19-C ) :   1.3584 B( 17-C , 20-H ) :   0.9685 B( 18-C , 21-C ) :   1.3584
B( 18-C , 22-H ) :   0.9685 B( 19-C , 21-C ) :   1.3429 B( 19-C , 23-H ) :   0.9915
B( 21-C , 24-H ) :   0.9915

FINAL SINGLE POINT ENERGY     -3686.919501820190

DIPOLE MOMENT
-------------
                                X             Y             Z
Electronic contribution:     -0.00000      -0.00000       0.00000
Nuclear contribution   :      0.00000      -0.00000      -0.00000
                        -----------------------------------------
Total Dipole Moment    :     -0.00000      -0.00000       0.00000
                        -----------------------------------------
Magnitude (a.u.)       :      0.00000
Magnitude (Debye)      :      0.00000

Rotational constants in cm-1:     0.033271     0.004801     0.004200
Rotational constants in MHz :   997.432807   143.923735   125.919608

                             ****ORCA TERMINATED NORMALLY****
TOTAL RUN TIME: 0 days 5 hours 53 minutes 59 seconds 130 msec
