                         Program Version 5.0.4 -  RELEASE  -
|  1> ! RIJCOSX nofrozencore ReducedPop printbasis
|  2> ! M06L ano-rcc-dzp autoaux
|  3>
|  4> %maxcore 5000
|  5> %basis
|  6> PCDTrimBas overlap
|  7> PCDTrimAuxJ Coulomb
|  8> PCDTrimAuxJK Coulomb
|  9> PCDTrimAuxC Coulomb
| 10> PCDThresh -1
| 11> end
| 12>
| 13> %basis
| 14> newgto Cu "ano-rcc-tzp" end
| 15> newgto S "ano-rcc-tzp" end
| 16> end
| 17>
| 18> %pal
| 19> nprocs 12
| 20> end
| 21>
| 22> % sym SymThresh 1e-2 end
| 23> * xyz -2 2
| 24> Cu 0.0005105453485660195 0.00021409242767029228 0.00198529994697825
| 25> S -1.0356682594518722 0.20521550597652363 1.8094397242684623
| 26> C -0.06947103310910407 0.3555594127284387 3.240867037122005
| 27> S -1.6628097758134937 -0.12938025383759674 -1.2828247684426735
| 28> C -1.3091617589129065 -0.3165163814591738 -2.9691003296173837
| 29> S 1.6529997736096136 0.1293483617137568 1.2819319657476105
| 30> C 1.3087771997937476 0.3166378407336817 2.9701760972170574
| 31> S 1.0434739199493819 -0.20572803006586485 -1.8136386555914852
| 32> C 0.06990701160836277 -0.3554897862712448 -3.2402048265024566
| 33> C 0.5199600500493163 -0.5025953357994278 -4.555196652868719
| 34> C -2.230418246553244 -0.4247961870521199 -4.013850213436637
| 35> C -1.7741961499135561 -0.5714030771811609 -5.323930826842308
| 36> H -3.2928569408422703 -0.39368731468858953 -3.7950840072719303
| 37> C -0.405343087690918 -0.6101276353156656 -5.5933907580435775
| 38> H 1.5861830168601394 -0.5316617427357465 -4.7550803335280944
| 39> H -2.4884266245664906 -0.6558468528230422 -6.138434830075802
| 40> H -0.058457499683389445 -0.7245863493106184 -6.616748770311178
| 41> C -0.5194207995643005 0.5025930978469497 4.555227667477839
| 42> C 2.2306760681967237 0.42482909727881024 4.014166393633886
| 43> C 0.4060368322762736 0.610160218114925 5.593730688641616
| 44> H -1.5855919650465116 0.5317312164318622 4.755769025156587
| 45> C 1.7751157106893447 0.571459914959154 5.324487616251891
| 46> H 3.293065460624926 0.3936641096172314 3.794903372211922
| 47> H 0.05891604221681521 0.7246074899543914 6.61698820677085
| 48> H 2.489405514602298 0.6558924746904975 6.1389112562957
| 49> *
| 50>
| 51> % eprnmr
| 52> gtensor true
| 53> Nuclei = all H {aiso,adip,aorb,fgrad,rho}
| 54> Nuclei = all Cu {aiso,adip,aorb,fgrad,rho}
| 55> end
| 56>
| 57>                          ****END OF INPUT****

CARTESIAN COORDINATES (ANGSTROEM)
---------------------------------
  Cu     0.000511    0.000214    0.001985
  S     -1.035668    0.205215    1.809440
  C     -0.069471    0.355559    3.240867
  S     -1.662810   -0.129380   -1.282825
  C     -1.309162   -0.316516   -2.969100
  S      1.653000    0.129348    1.281932
  C      1.308777    0.316638    2.970176
  S      1.043474   -0.205728   -1.813639
  C      0.069907   -0.355490   -3.240205
  C      0.519960   -0.502595   -4.555197
  C     -2.230418   -0.424796   -4.013850
  C     -1.774196   -0.571403   -5.323931
  H     -3.292857   -0.393687   -3.795084
  C     -0.405343   -0.610128   -5.593391
  H      1.586183   -0.531662   -4.755080
  H     -2.488427   -0.655847   -6.138435
  H     -0.058458   -0.724586   -6.616749
  C     -0.519421    0.502593    4.555228
  C      2.230676    0.424829    4.014166
  C      0.406037    0.610160    5.593731
  H     -1.585592    0.531731    4.755769
  C      1.775116    0.571460    5.324488
  H      3.293065    0.393664    3.794903
  H      0.058916    0.724607    6.616988
  H      2.489405    0.655892    6.138911

 Total Charge           Charge          ....   -2
 Multiplicity           Mult            ....    2
 Number of Electrons    NEL             ....  175
 Basis Dimension        Dim             ....  475

ORBITAL ENERGIES
----------------
                 SPIN UP ORBITALS
  NO   OCC          E(Eh)            E(eV)
   0   1.0000    -318.191640     -8658.4347
   1   1.0000     -88.007696     -2394.8112
   2   1.0000     -88.007657     -2394.8101
   3   1.0000     -88.006901     -2394.7895
   4   1.0000     -88.006879     -2394.7889
   5   1.0000     -38.037172     -1035.0441
   6   1.0000     -33.539104      -912.6454
   7   1.0000     -33.537128      -912.5916
   8   1.0000     -33.526547      -912.3037
   9   1.0000      -9.826171      -267.3837
  10   1.0000      -9.825906      -267.3765
  11   1.0000      -9.825782      -267.3731
  12   1.0000      -9.825516      -267.3659
  13   1.0000      -9.824404      -267.3356
  14   1.0000      -9.823985      -267.3242
  15   1.0000      -9.823903      -267.3220
  16   1.0000      -9.823483      -267.3106
  17   1.0000      -9.818218      -267.1673
  18   1.0000      -9.818164      -267.1658
  19   1.0000      -9.817701      -267.1532
  20   1.0000      -9.817625      -267.1511
  21   1.0000      -7.578152      -206.2120
  22   1.0000      -7.578125      -206.2113
  23   1.0000      -7.577319      -206.1893
  24   1.0000      -7.577304      -206.1889
  25   1.0000      -5.501081      -149.6920
  26   1.0000      -5.501067      -149.6916
  27   1.0000      -5.500280      -149.6702
  28   1.0000      -5.500259      -149.6696
  29   1.0000      -5.495911      -149.5513
  30   1.0000      -5.495878      -149.5504
  31   1.0000      -5.495010      -149.5268
  32   1.0000      -5.495006      -149.5267
  33   1.0000      -5.494296      -149.5074
  34   1.0000      -5.494269      -149.5067
  35   1.0000      -5.493478      -149.4851
  36   1.0000      -5.493474      -149.4850
  37   1.0000      -4.032352      -109.7259
  38   1.0000      -2.553242       -69.4772
  39   1.0000      -2.550841       -69.4119
  40   1.0000      -2.526058       -68.7375
  41   1.0000      -0.591981       -16.1086
  42   1.0000      -0.591205       -16.0875
  43   1.0000      -0.512933       -13.9576
  44   1.0000      -0.510393       -13.8885
  45   1.0000      -0.487112       -13.2550
  46   1.0000      -0.486695       -13.2436
  47   1.0000      -0.402805       -10.9609
  48   1.0000      -0.402419       -10.9504
  49   1.0000      -0.399812       -10.8794
  50   1.0000      -0.393143       -10.6980
  51   1.0000      -0.322843        -8.7850
  52   1.0000      -0.316721        -8.6184
  53   1.0000      -0.300154        -8.1676
  54   1.0000      -0.297434        -8.0936
  55   1.0000      -0.237237        -6.4555
  56   1.0000      -0.227125        -6.1804
  57   1.0000      -0.190295        -5.1782
  58   1.0000      -0.189304        -5.1512
  59   1.0000      -0.180941        -4.9237
  60   1.0000      -0.179508        -4.8847
  61   1.0000      -0.148675        -4.0456
  62   1.0000      -0.147995        -4.0272
  63   1.0000      -0.145033        -3.9465
  64   1.0000      -0.119103        -3.2410
  65   1.0000      -0.118425        -3.2225
  66   1.0000      -0.116567        -3.1720
  67   1.0000      -0.096130        -2.6158
  68   1.0000      -0.088865        -2.4181
  69   1.0000      -0.074731        -2.0335
  70   1.0000      -0.069350        -1.8871
  71   1.0000      -0.057286        -1.5588
  72   1.0000      -0.050329        -1.3695
  73   1.0000      -0.042468        -1.1556
  74   1.0000      -0.033360        -0.9078
  75   1.0000      -0.016171        -0.4400
  76   1.0000      -0.008626        -0.2347
  77   1.0000      -0.008364        -0.2276
  78   1.0000      -0.004984        -0.1356
  79   1.0000      -0.002838        -0.0772
  80   1.0000       0.004351         0.1184
  81   1.0000       0.026744         0.7278
  82   1.0000       0.052439         1.4269
  83   1.0000       0.056618         1.5407
  84   1.0000       0.061928         1.6851
  85   1.0000       0.069510         1.8915
  86   1.0000       0.091499         2.4898
  87   1.0000       0.148065         4.0291
  88   0.0000       0.179852         4.8940
  89   0.0000       0.180205         4.9036
  90   0.0000       0.193811         5.2739
  91   0.0000       0.194152         5.2831
  92   0.0000       0.198375         5.3980

                 SPIN DOWN ORBITALS
  NO   OCC          E(Eh)            E(eV)
   0   1.0000    -318.191501     -8658.4309
   1   1.0000     -88.006442     -2394.7770
   2   1.0000     -88.006400     -2394.7759
   3   1.0000     -88.005682     -2394.7564
   4   1.0000     -88.005660     -2394.7558
   5   1.0000     -38.023791     -1034.6799
   6   1.0000     -33.526375      -912.2990
   7   1.0000     -33.524421      -912.2459
   8   1.0000     -33.522758      -912.2006
   9   1.0000      -9.826292      -267.3870
  10   1.0000      -9.826023      -267.3797
  11   1.0000      -9.825902      -267.3764
  12   1.0000      -9.825632      -267.3690
  13   1.0000      -9.824386      -267.3351
  14   1.0000      -9.823967      -267.3237
  15   1.0000      -9.823885      -267.3215
  16   1.0000      -9.823465      -267.3101
  17   1.0000      -9.818167      -267.1659
  18   1.0000      -9.818114      -267.1645
  19   1.0000      -9.817650      -267.1518
  20   1.0000      -9.817574      -267.1498
  21   1.0000      -7.577292      -206.1886
  22   1.0000      -7.577261      -206.1878
  23   1.0000      -7.576484      -206.1666
  24   1.0000      -7.576470      -206.1662
  25   1.0000      -5.499990      -149.6623
  26   1.0000      -5.499966      -149.6617
  27   1.0000      -5.499214      -149.6412
  28   1.0000      -5.499202      -149.6409
  29   1.0000      -5.493371      -149.4822
  30   1.0000      -5.493336      -149.4813
  31   1.0000      -5.493299      -149.4803
  32   1.0000      -5.493267      -149.4794
  33   1.0000      -5.492547      -149.4598
  34   1.0000      -5.492545      -149.4597
  35   1.0000      -5.492508      -149.4587
  36   1.0000      -5.492505      -149.4587
  37   1.0000      -4.006462      -109.0214
  38   1.0000      -2.521009       -68.6001
  39   1.0000      -2.518412       -68.5295
  40   1.0000      -2.516112       -68.4669
  41   1.0000      -0.591413       -16.0932
  42   1.0000      -0.590669       -16.0729
  43   1.0000      -0.510984       -13.9046
  44   1.0000      -0.508622       -13.8403
  45   1.0000      -0.486215       -13.2306
  46   1.0000      -0.485813       -13.2196
  47   1.0000      -0.399551       -10.8723
  48   1.0000      -0.397576       -10.8186
  49   1.0000      -0.394709       -10.7406
  50   1.0000      -0.389929       -10.6105
  51   1.0000      -0.321634        -8.7521
  52   1.0000      -0.314970        -8.5708
  53   1.0000      -0.298208        -8.1147
  54   1.0000      -0.294712        -8.0195
  55   1.0000      -0.236640        -6.4393
  56   1.0000      -0.226306        -6.1581
  57   1.0000      -0.189033        -5.1438
  58   1.0000      -0.188120        -5.1190
  59   1.0000      -0.180472        -4.9109
  60   1.0000      -0.178119        -4.8469
  61   1.0000      -0.147625        -4.0171
  62   1.0000      -0.144607        -3.9350
  63   1.0000      -0.143682        -3.9098
  64   1.0000      -0.118752        -3.2314
  65   1.0000      -0.118100        -3.2137
  66   1.0000      -0.115738        -3.1494
  67   1.0000      -0.094059        -2.5595
  68   1.0000      -0.073677        -2.0048
  69   1.0000      -0.072307        -1.9676
  70   1.0000      -0.066688        -1.8147
  71   1.0000      -0.051410        -1.3989
  72   1.0000      -0.046646        -1.2693
  73   1.0000      -0.041256        -1.1226
  74   1.0000      -0.026900        -0.7320
  75   1.0000      -0.015514        -0.4222
  76   1.0000      -0.004553        -0.1239
  77   1.0000      -0.000945        -0.0257
  78   1.0000       0.009271         0.2523
  79   1.0000       0.010972         0.2986
  80   1.0000       0.011696         0.3183
  81   1.0000       0.036039         0.9807
  82   1.0000       0.054064         1.4712
  83   1.0000       0.060164         1.6372
  84   1.0000       0.067549         1.8381
  85   1.0000       0.079425         2.1613
  86   1.0000       0.096352         2.6219
  87   0.0000       0.174967         4.7611
  88   0.0000       0.185053         5.0356
  89   0.0000       0.185290         5.0420
  90   0.0000       0.198187         5.3930
  91   0.0000       0.201753         5.4900

MULLIKEN ATOMIC CHARGES AND SPIN POPULATIONS
--------------------------------------------
   0 Cu:    0.071390    0.300997
   1 S :   -0.391872    0.182192
   2 C :    0.055297   -0.005043
   3 S :   -0.394305    0.176508
   4 C :    0.054831   -0.004701
   5 S :   -0.391356    0.181912
   6 C :    0.055805   -0.004824
   7 S :   -0.394625    0.176621
   8 C :    0.054155   -0.004902
   9 C :   -0.131780   -0.003097
  10 C :   -0.131484   -0.003230
  11 C :   -0.136115   -0.001750
  12 H :    0.054916    0.003399
  13 C :   -0.136170   -0.001763
  14 H :    0.054851    0.003222
  15 H :    0.033598    0.001961
  16 H :    0.033534    0.001984
  17 C :   -0.132626   -0.003207
  18 C :   -0.132593   -0.003349
  19 C :   -0.136229   -0.001843
  20 H :    0.054629    0.003272
  21 C :   -0.136087   -0.001836
  22 H :    0.054763    0.003455
  23 H :    0.033776    0.002010
  24 H :    0.033697    0.002013
Sum of atomic charges         :   -2.0000000

LOEWDIN ATOMIC CHARGES AND SPIN POPULATIONS
-------------------------------------------
   0 Cu:   -1.146677    0.357131
   1 S :    0.032786    0.143942
   2 C :   -0.019336    0.008107
   3 S :    0.031757    0.140029
   4 C :   -0.020953    0.007952
   5 S :    0.032641    0.144218
   6 C :   -0.019527    0.008113
   7 S :    0.031900    0.139513
   8 C :   -0.020345    0.007947
   9 C :    0.314913    0.003863
  10 C :    0.314867    0.003856
  11 C :    0.311701   -0.000321
  12 H :   -0.430381    0.006586
  13 C :    0.311607   -0.000315
  14 H :   -0.430344    0.006532
  15 H :   -0.422448    0.000596
  16 H :   -0.422407    0.000602
  17 C :    0.315265    0.003881
  18 C :    0.315247    0.003875
  19 C :    0.311906   -0.000360
  20 H :   -0.429679    0.006679
  21 C :    0.311888   -0.000360
  22 H :   -0.429759    0.006723
  23 H :   -0.422371    0.000603
  24 H :   -0.422250    0.000605

  Mayer bond orders larger than 0.100000
B(  0-Cu,  1-S ) :   0.8233 B(  0-Cu,  3-S ) :   0.8103 B(  0-Cu,  5-S ) :   0.8220
B(  0-Cu,  7-S ) :   0.8130 B(  1-S ,  2-C ) :   1.1904 B(  2-C ,  6-C ) :   1.2102
B(  2-C , 17-C ) :   1.3286 B(  3-S ,  4-C ) :   1.1919 B(  4-C ,  8-C ) :   1.2113
B(  4-C , 10-C ) :   1.3282 B(  5-S ,  6-C ) :   1.1913 B(  6-C , 18-C ) :   1.3285
B(  7-S ,  8-C ) :   1.1908 B(  8-C ,  9-C ) :   1.3282 B(  9-C , 13-C ) :   1.3579
B(  9-C , 14-H ) :   0.9759 B( 10-C , 11-C ) :   1.3577 B( 10-C , 12-H ) :   0.9758
B( 11-C , 13-C ) :   1.3454 B( 11-C , 15-H ) :   0.9867 B( 13-C , 16-H ) :   0.9868
B( 17-C , 19-C ) :   1.3580 B( 17-C , 20-H ) :   0.9760 B( 18-C , 21-C ) :   1.3579
B( 18-C , 22-H ) :   0.9759 B( 19-C , 21-C ) :   1.3455 B( 19-C , 23-H ) :   0.9867
B( 21-C , 24-H ) :   0.9866

FINAL SINGLE POINT ENERGY     -3686.860073836514

DIPOLE MOMENT
-------------
                                X             Y             Z
Electronic contribution:      0.00607       0.00382       0.03541
Nuclear contribution   :     -0.00049      -0.00099      -0.00901
                        -----------------------------------------
Total Dipole Moment    :      0.00558       0.00283       0.02640
                        -----------------------------------------
Magnitude (a.u.)       :      0.02713
Magnitude (Debye)      :      0.06896

Rotational constants in cm-1:     0.040607     0.004826     0.004314
Rotational constants in MHz :  1217.357909   144.690891   129.320330

                             ****ORCA TERMINATED NORMALLY****
TOTAL RUN TIME: 0 days 6 hours 7 minutes 42 seconds 272 msec
