                         Program Version 5.0.4 -  RELEASE  -
|  1> ! RIJCOSX nofrozencore ReducedPop printbasis
|  2> ! M06L ano-rcc-dzp autoaux
|  3>
|  4> %maxcore 5000
|  5> %basis
|  6> PCDTrimBas overlap
|  7> PCDTrimAuxJ Coulomb
|  8> PCDTrimAuxJK Coulomb
|  9> PCDTrimAuxC Coulomb
| 10> PCDThresh -1
| 11> end
| 12>
| 13> %basis
| 14> newgto Cu "ano-rcc-tzp" end
| 15> newgto S "ano-rcc-tzp" end
| 16> end
| 17>
| 18> %pal
| 19> nprocs 12
| 20> end
| 21>
| 22> % sym SymThresh 1e-2 end
| 23> * xyz -2 2
| 24> Cu -0.27972148177279693 -0.019272379894493784 0.23917201195799048
| 25> S 1.6242852927974667 0.1481645830601178 1.655175190566385
| 26> C 1.726265666934268 1.852314625310974 2.0097128601648673
| 27> S 0.26660336433621 -2.3047350837234246 -0.13033545029266888
| 28> C -0.8484028214538134 -2.799297283520675 -1.3762863447615032
| 29> S -0.013979199028481923 2.3221405001879867 -0.0856673733121832
| 30> C 1.0045260508581964 2.8100539339158006 1.2427953212856775
| 31> S -1.3716596094753153 -0.1307590620066966 -1.871179312128625
| 32> C -1.5701325704361329 -1.841557295088264 -2.143212320363715
| 33> C -2.4717619403185145 -2.3078989737255924 -3.1138193248048625
| 34> C -1.0743589833683282 -4.162229820266817 -1.6289481616958947
| 35> C -1.9868954302750756 -4.602085603798849 -2.5846617424454985
| 36> H -0.5298517750363675 -4.885357086522966 -1.0301744674712376
| 37> C -2.6930732497598657 -3.664969210013231 -3.3350809704047406
| 38> H -3.027685713792296 -1.5707676990658708 -3.6843608497364015
| 39> H -2.1525352986348913 -5.668803071417882 -2.7320120899957594
| 40> H -3.4208508557485002 -3.985774870312894 -4.079706032776503
| 41> C 2.5082379004343864 2.3104114014556165 3.0826301695497627
| 42> C 1.1108524585713215 4.164744874406399 1.5977458032708736
| 43> C 2.584797834981346 3.6575092004579393 3.4276603770131997
| 44> H 3.0442351070363047 1.5719079268081255 3.6702105182932536
| 45> C 1.8786048353523217 4.594624548354966 2.6772541286278373
| 46> H 0.5464235879537478 4.8864995687697315 1.0160058528266376
| 47> H 3.182165605892319 3.9693291159442916 4.283791550406589
| 48> H 1.9138720599878496 5.652358833587737 2.9360787872437197
| 49> *
| 50>
| 51> % eprnmr
| 52> gtensor true
| 53> Nuclei = all H {aiso,adip,aorb,fgrad,rho}
| 54> Nuclei = all Cu {aiso,adip,aorb,fgrad,rho}
| 55> end
| 56>
| 57>                          ****END OF INPUT****

CARTESIAN COORDINATES (ANGSTROEM)
---------------------------------
  Cu     0.000000   -0.000000   -0.368536
  S      1.661932    1.615597    0.166418
  C      3.151642    0.711747    0.102850
  S     -1.661932    1.615597    0.166418
  C     -3.151642    0.711747    0.102850
  S      1.661932   -1.615597    0.166418
  C      3.151642   -0.711747    0.102850
  S     -1.661932   -1.615597    0.166418
  C     -3.151642   -0.711747    0.102850
  C     -4.385461   -1.378053    0.024035
  C     -4.385461    1.378053    0.024035
  C     -5.596188    0.696420   -0.071332
  H     -4.375043    2.463249    0.010909
  C     -5.596188   -0.696420   -0.071332
  H     -4.375043   -2.463249    0.010909
  H     -6.530202    1.250749   -0.157228
  H     -6.530202   -1.250749   -0.157228
  C      4.385461    1.378053    0.024035
  C      4.385461   -1.378053    0.024035
  C      5.596188    0.696420   -0.071332
  H      4.375043    2.463249    0.010909
  C      5.596188   -0.696420   -0.071332
  H      4.375043   -2.463249    0.010909
  H      6.530202    1.250749   -0.157228
  H      6.530202   -1.250749   -0.157228

 Total Charge           Charge          ....   -2
 Multiplicity           Mult            ....    2
 Number of Electrons    NEL             ....  175
 Basis Dimension        Dim             ....  475

ORBITAL ENERGIES
----------------
                 SPIN UP ORBITALS
  NO   OCC          E(Eh)            E(eV)    Irrep
   0   1.0000    -318.174875     -8657.9785    1-A1
   1   1.0000     -88.014349     -2394.9922    1-A2
   2   1.0000     -88.014344     -2394.9921    1-B1
   3   1.0000     -88.014336     -2394.9918    1-B2
   4   1.0000     -88.014310     -2394.9911    2-A1
   5   1.0000     -38.019852     -1034.5728    3-A1
   6   1.0000     -33.522949      -912.2058    2-B2
   7   1.0000     -33.522474      -912.1929    2-B1
   8   1.0000     -33.508985      -911.8258    4-A1
   9   1.0000      -9.832780      -267.5636    3-B1
  10   1.0000      -9.832774      -267.5634    5-A1
  11   1.0000      -9.832448      -267.5545    2-A2
  12   1.0000      -9.832446      -267.5544    3-B2
  13   1.0000      -9.824791      -267.3461    4-B1
  14   1.0000      -9.824790      -267.3461    6-A1
  15   1.0000      -9.824360      -267.3344    3-A2
  16   1.0000      -9.824360      -267.3344    4-B2
  17   1.0000      -9.817057      -267.1357    4-A2
  18   1.0000      -9.817056      -267.1357    5-B2
  19   1.0000      -9.817053      -267.1356    5-B1
  20   1.0000      -9.817052      -267.1356    7-A1
  21   1.0000      -7.582831      -206.3393    5-A2
  22   1.0000      -7.582829      -206.3393    6-B2
  23   1.0000      -7.582823      -206.3391    6-B1
  24   1.0000      -7.582815      -206.3389    8-A1
  25   1.0000      -5.506025      -149.8266    6-A2
  26   1.0000      -5.506025      -149.8266    7-B2
  27   1.0000      -5.506024      -149.8265    7-B1
  28   1.0000      -5.506024      -149.8265    9-A1
  29   1.0000      -5.501012      -149.6901    7-A2
  30   1.0000      -5.501012      -149.6901    8-B2
  31   1.0000      -5.501011      -149.6901    8-B1
  32   1.0000      -5.501011      -149.6901   10-A1
  33   1.0000      -5.498713      -149.6276    8-A2
  34   1.0000      -5.498712      -149.6276    9-B2
  35   1.0000      -5.498712      -149.6276    9-B1
  36   1.0000      -5.498712      -149.6276   11-A1
  37   1.0000      -4.019437      -109.3744   12-A1
  38   1.0000      -2.540335       -69.1260   10-B2
  39   1.0000      -2.539359       -69.0995   10-B1
  40   1.0000      -2.512969       -68.3814   13-A1
  41   1.0000      -0.588646       -16.0179   14-A1
  42   1.0000      -0.588543       -16.0151   11-B1
  43   1.0000      -0.504079       -13.7167   15-A1
  44   1.0000      -0.503130       -13.6909   12-B1
  45   1.0000      -0.489032       -13.3072   11-B2
  46   1.0000      -0.488760       -13.2998    9-A2
  47   1.0000      -0.408627       -11.1193   12-B2
  48   1.0000      -0.405768       -11.0415   10-A2
  49   1.0000      -0.386468       -10.5163   16-A1
  50   1.0000      -0.380570       -10.3558   13-B1
  51   1.0000      -0.321555        -8.7500   17-A1
  52   1.0000      -0.319017        -8.6809   14-B1
  53   1.0000      -0.299088        -8.1386   13-B2
  54   1.0000      -0.295177        -8.0322   11-A2
  55   1.0000      -0.232073        -6.3150   18-A1
  56   1.0000      -0.227353        -6.1866   15-B1
  57   1.0000      -0.189190        -5.1481   19-A1
  58   1.0000      -0.188539        -5.1304   16-B1
  59   1.0000      -0.177189        -4.8215   14-B2
  60   1.0000      -0.173873        -4.7313   12-A2
  61   1.0000      -0.145882        -3.9696   15-B2
  62   1.0000      -0.142207        -3.8696   13-A2
  63   1.0000      -0.129171        -3.5149   20-A1
  64   1.0000      -0.116819        -3.1788   21-A1
  65   1.0000      -0.116417        -3.1679   17-B1
  66   1.0000      -0.113453        -3.0872   18-B1
  67   1.0000      -0.084593        -2.3019   22-A1
  68   1.0000      -0.069349        -1.8871   16-B2
  69   1.0000      -0.061790        -1.6814   19-B1
  70   1.0000      -0.059022        -1.6061   14-A2
  71   1.0000      -0.041011        -1.1160   23-A1
  72   1.0000      -0.036569        -0.9951   20-B1
  73   1.0000      -0.031643        -0.8610   15-A2
  74   1.0000      -0.022578        -0.6144   17-B2
  75   1.0000      -0.018355        -0.4995   24-A1
  76   1.0000      -0.015933        -0.4335   16-A2
  77   1.0000      -0.005788        -0.1575   21-B1
  78   1.0000      -0.002009        -0.0547   18-B2
  79   1.0000       0.002328         0.0633   25-A1
  80   1.0000       0.015188         0.4133   26-A1
  81   1.0000       0.033828         0.9205   19-B2
  82   1.0000       0.034510         0.9391   22-B1
  83   1.0000       0.052897         1.4394   17-A2
  84   1.0000       0.057936         1.5765   20-B2
  85   1.0000       0.064889         1.7657   27-A1
  86   1.0000       0.084843         2.3087   23-B1
  87   1.0000       0.097924         2.6646   18-A2
  88   0.0000       0.181333         4.9343   28-A1
  89   0.0000       0.181471         4.9381   24-B1
  90   0.0000       0.197000         5.3606   19-A2
  91   0.0000       0.197180         5.3656   21-B2
  92   0.0000       0.199492         5.4285   29-A1

                 SPIN DOWN ORBITALS
  NO   OCC          E(Eh)            E(eV)    Irrep
   0   1.0000    -318.174712     -8657.9741    1-A1
   1   1.0000     -88.013254     -2394.9624    1-A2
   2   1.0000     -88.013250     -2394.9623    1-B1
   3   1.0000     -88.013242     -2394.9621    1-B2
   4   1.0000     -88.013216     -2394.9614    2-A1
   5   1.0000     -38.004964     -1034.1676    3-A1
   6   1.0000     -33.508718      -911.8186    2-B2
   7   1.0000     -33.508259      -911.8061    2-B1
   8   1.0000     -33.504938      -911.7157    4-A1
   9   1.0000      -9.832890      -267.5665    3-B1
  10   1.0000      -9.832884      -267.5664    5-A1
  11   1.0000      -9.832558      -267.5575    2-A2
  12   1.0000      -9.832555      -267.5574    3-B2
  13   1.0000      -9.824761      -267.3453    4-B1
  14   1.0000      -9.824761      -267.3453    6-A1
  15   1.0000      -9.824330      -267.3336    3-A2
  16   1.0000      -9.824330      -267.3336    4-B2
  17   1.0000      -9.816997      -267.1341    4-A2
  18   1.0000      -9.816996      -267.1341    5-B2
  19   1.0000      -9.816993      -267.1340    5-B1
  20   1.0000      -9.816992      -267.1339    7-A1
  21   1.0000      -7.582079      -206.3189    5-A2
  22   1.0000      -7.582077      -206.3188    6-B2
  23   1.0000      -7.582071      -206.3186    6-B1
  24   1.0000      -7.582063      -206.3184    8-A1
  25   1.0000      -5.505081      -149.8009    6-A2
  26   1.0000      -5.505081      -149.8009    7-B2
  27   1.0000      -5.505080      -149.8008    7-B1
  28   1.0000      -5.505080      -149.8008    9-A1
  29   1.0000      -5.498983      -149.6349    7-A2
  30   1.0000      -5.498983      -149.6349    8-B2
  31   1.0000      -5.498983      -149.6349    8-B1
  32   1.0000      -5.498983      -149.6349   10-A1
  33   1.0000      -5.497588      -149.5970    8-A2
  34   1.0000      -5.497588      -149.5970    9-B2
  35   1.0000      -5.497588      -149.5970    9-B1
  36   1.0000      -5.497587      -149.5970   11-A1
  37   1.0000      -3.987664      -108.5099   12-A1
  38   1.0000      -2.501968       -68.0820   13-A1
  39   1.0000      -2.500661       -68.0465   10-B2
  40   1.0000      -2.499662       -68.0193   10-B1
  41   1.0000      -0.588261       -16.0074   14-A1
  42   1.0000      -0.588167       -16.0048   11-B1
  43   1.0000      -0.502730       -13.6800   15-A1
  44   1.0000      -0.501846       -13.6559   12-B1
  45   1.0000      -0.487981       -13.2786   11-B2
  46   1.0000      -0.487741       -13.2721    9-A2
  47   1.0000      -0.404589       -11.0094   12-B2
  48   1.0000      -0.401700       -10.9308   10-A2
  49   1.0000      -0.383193       -10.4272   16-A1
  50   1.0000      -0.377373       -10.2688   13-B1
  51   1.0000      -0.320294        -8.7156   17-A1
  52   1.0000      -0.317461        -8.6386   14-B1
  53   1.0000      -0.297227        -8.0879   13-B2
  54   1.0000      -0.292984        -7.9725   11-A2
  55   1.0000      -0.231474        -6.2987   18-A1
  56   1.0000      -0.226625        -6.1668   15-B1
  57   1.0000      -0.188244        -5.1224   19-A1
  58   1.0000      -0.187655        -5.1064   16-B1
  59   1.0000      -0.176638        -4.8066   14-B2
  60   1.0000      -0.173131        -4.7111   12-A2
  61   1.0000      -0.145201        -3.9511   15-B2
  62   1.0000      -0.141029        -3.8376   13-A2
  63   1.0000      -0.127987        -3.4827   20-A1
  64   1.0000      -0.116508        -3.1704   21-A1
  65   1.0000      -0.116146        -3.1605   17-B1
  66   1.0000      -0.112549        -3.0626   18-B1
  67   1.0000      -0.083222        -2.2646   22-A1
  68   1.0000      -0.067716        -1.8426   16-B2
  69   1.0000      -0.059946        -1.6312   19-B1
  70   1.0000      -0.047993        -1.3060   14-A2
  71   1.0000      -0.039171        -1.0659   23-A1
  72   1.0000      -0.035180        -0.9573   20-B1
  73   1.0000      -0.020748        -0.5646   17-B2
  74   1.0000      -0.019734        -0.5370   15-A2
  75   1.0000      -0.012595        -0.3427   24-A1
  76   1.0000       0.004329         0.1178   16-A2
  77   1.0000       0.004913         0.1337   21-B1
  78   1.0000       0.009199         0.2503   18-B2
  79   1.0000       0.012354         0.3362   25-A1
  80   1.0000       0.029691         0.8079   26-A1
  81   1.0000       0.039331         1.0703   19-B2
  82   1.0000       0.043237         1.1765   22-B1
  83   1.0000       0.056975         1.5504   17-A2
  84   1.0000       0.065640         1.7862   20-B2
  85   1.0000       0.067935         1.8486   27-A1
  86   1.0000       0.088788         2.4161   23-B1
  87   0.0000       0.128077         3.4852   18-A2
  88   0.0000       0.182158         4.9568   28-A1
  89   0.0000       0.182279         4.9601   24-B1
  90   0.0000       0.198439         5.3998   19-A2
  91   0.0000       0.198656         5.4057   21-B2

MULLIKEN ATOMIC CHARGES AND SPIN POPULATIONS
--------------------------------------------
   0 Cu:    0.155082    0.356968
   1 S :   -0.428630    0.166017
   2 C :    0.022650   -0.006729
   3 S :   -0.428630    0.166017
   4 C :    0.022650   -0.006729
   5 S :   -0.428630    0.166017
   6 C :    0.022650   -0.006729
   7 S :   -0.428630    0.166017
   8 C :    0.022650   -0.006729
   9 C :   -0.092157   -0.001070
  10 C :   -0.092157   -0.001070
  11 C :   -0.135425    0.000029
  12 H :    0.066153    0.001579
  13 C :   -0.135425    0.000029
  14 H :    0.066153    0.001579
  15 H :    0.028639    0.000932
  16 H :    0.028639    0.000932
  17 C :   -0.092157   -0.001070
  18 C :   -0.092157   -0.001070
  19 C :   -0.135425    0.000029
  20 H :    0.066153    0.001579
  21 C :   -0.135425    0.000029
  22 H :    0.066153    0.001579
  23 H :    0.028639    0.000932
  24 H :    0.028639    0.000932
Sum of atomic charges         :   -2.0000000

LOEWDIN ATOMIC CHARGES AND SPIN POPULATIONS
-------------------------------------------
   0 Cu:   -0.804904    0.414814
   1 S :   -0.007200    0.129891
   2 C :   -0.043407    0.005645
   3 S :   -0.007200    0.129891
   4 C :   -0.043407    0.005645
   5 S :   -0.007200    0.129891
   6 C :   -0.043407    0.005645
   7 S :   -0.007200    0.129891
   8 C :   -0.043407    0.005645
   9 C :    0.306999    0.004012
  10 C :    0.306999    0.004012
  11 C :    0.310043    0.000480
  12 H :   -0.449664    0.005968
  13 C :    0.310043    0.000480
  14 H :   -0.449664    0.005968
  15 H :   -0.415546    0.000301
  16 H :   -0.415546    0.000301
  17 C :    0.306999    0.004012
  18 C :    0.306999    0.004012
  19 C :    0.310043    0.000480
  20 H :   -0.449664    0.005968
  21 C :    0.310043    0.000480
  22 H :   -0.449664    0.005968
  23 H :   -0.415546    0.000301
  24 H :   -0.415546    0.000301

  Mayer bond orders larger than 0.100000
B(  0-Cu,  1-S ) :   0.6688 B(  0-Cu,  3-S ) :   0.6688 B(  0-Cu,  5-S ) :   0.6688
B(  0-Cu,  7-S ) :   0.6688 B(  1-S ,  2-C ) :   1.1845 B(  2-C ,  6-C ) :   1.2446
B(  2-C , 17-C ) :   1.3193 B(  3-S ,  4-C ) :   1.1845 B(  4-C ,  8-C ) :   1.2446
B(  4-C , 10-C ) :   1.3193 B(  5-S ,  6-C ) :   1.1845 B(  6-C , 18-C ) :   1.3193
B(  7-S ,  8-C ) :   1.1845 B(  8-C ,  9-C ) :   1.3193 B(  9-C , 13-C ) :   1.3613
B(  9-C , 14-H ) :   0.9689 B( 10-C , 11-C ) :   1.3613 B( 10-C , 12-H ) :   0.9689
B( 11-C , 13-C ) :   1.3398 B( 11-C , 15-H ) :   0.9895 B( 13-C , 16-H ) :   0.9895
B( 17-C , 19-C ) :   1.3613 B( 17-C , 20-H ) :   0.9689 B( 18-C , 21-C ) :   1.3613
B( 18-C , 22-H ) :   0.9689 B( 19-C , 21-C ) :   1.3398 B( 19-C , 23-H ) :   0.9895
B( 21-C , 24-H ) :   0.9895

FINAL SINGLE POINT ENERGY     -3686.911213266815

DIPOLE MOMENT
-------------
                                X             Y             Z
Electronic contribution:      0.00000      -0.00000      -1.85651
Nuclear contribution   :      0.00000       0.00000       1.34397
                        -----------------------------------------
Total Dipole Moment    :      0.00000      -0.00000      -0.51254
                        -----------------------------------------
Magnitude (a.u.)       :      0.51254
Magnitude (Debye)      :      1.30277

Rotational constants in cm-1:     0.032579     0.004786     0.004200
Rotational constants in MHz :   976.695041   143.484111   125.919588

                             ****ORCA TERMINATED NORMALLY****
TOTAL RUN TIME: 0 days 5 hours 31 minutes 24 seconds 797 msec
