                         Program Version 5.0.4 -  RELEASE  -
|  1> ! RIJCOSX nofrozencore ReducedPop printbasis
|  2> ! M06L ano-rcc-dzp autoaux
|  3>
|  4> %maxcore 5000
|  5> %basis
|  6> PCDTrimBas overlap
|  7> PCDTrimAuxJ Coulomb
|  8> PCDTrimAuxJK Coulomb
|  9> PCDTrimAuxC Coulomb
| 10> PCDThresh -1
| 11> end
| 12>
| 13> %basis
| 14> newgto Cu "ano-rcc-tzp" end
| 15> newgto S "ano-rcc-tzp" end
| 16> end
| 17>
| 18> %pal
| 19> nprocs 12
| 20> end
| 21>
| 22> % sym SymThresh 1e-2 end
| 23> * xyz -2 2
| 24> Cu 0.060822941634968396 0.03226778915965692 0.0946091054688562
| 25> S -0.409324966571524 -1.9597590037187862 -0.9981996675767689
| 26> C 0.40788533073149225 -3.1836069613053857 -0.07087033184591619
| 27> S -1.2194848040133426 1.0856817286309353 -1.5374541007430056
| 28> C -1.1738704429595987 2.7746436840277635 -1.1211450473670543
| 29> S 1.3014314387649968 -1.1895529787098473 1.6343539406599172
| 30> C 1.1626381935981176 -2.8470224973206233 1.0898946654398063
| 31> S 0.4218219513994071 2.114392829031989 1.04834192899583
| 32> C -0.45042246420845056 3.228785947839144 0.018758364877225438
| 33> C -0.452684335952825 4.603772298420631 0.300729807466396
| 34> C -1.853557749798353 3.719717285922468 -1.9075283537698868
| 35> C -1.8415788448429231 5.077460113320628 -1.6085482980622874
| 36> H -2.400498542322035 3.3568298478807637 -2.773372610907448
| 37> C -1.1338733160877275 5.5224048433195865 -0.4933074843204826
| 38> H 0.09992901199531855 4.947096802670784 1.1707150033168368
| 39> H -2.37984018672633 5.778802238681938 -2.2410726958530414
| 40> H -1.1093269357980402 6.579111035263097 -0.23861385068407132
| 41> C 0.333325065597607 -4.531802759384821 -0.4583249088599453
| 42> C 1.796212464165839 -3.886247122162884 1.7900932965703191
| 43> C 0.9698220274711778 -5.542757684090987 0.2519610381051228
| 44> H -0.24637496408644446 -4.770873051705001 -1.3458344121545596
| 45> C 1.7091916878626163 -5.2164089830331255 1.3883673225982591
| 46> H 2.3712456724987137 -3.6269299788200065 2.6750574554597573
| 47> H 0.8884994816813641 -6.5751142346001075 -0.0797470976274444
| 48> H 2.2164262116370175 -5.988772212920612 1.9613113801842734
| 49> *
| 50>
| 51> % eprnmr
| 52> gtensor true
| 53> Nuclei = all H {aiso,adip,aorb,fgrad,rho}
| 54> Nuclei = all Cu {aiso,adip,aorb,fgrad,rho}
| 55> end
| 56>
| 57>                          ****END OF INPUT****

CARTESIAN COORDINATES (ANGSTROEM)
---------------------------------
  Cu     0.000000   -0.000000    0.117010
  S      0.000000   -1.598579   -1.568962
  C      0.000000   -3.126729   -0.737373
  S      0.000000    1.598579   -1.568962
  C      0.000000    3.126729   -0.737373
  S      0.000000   -1.734439    1.659954
  C      0.000000   -3.188444    0.685949
  S      0.000000    1.734439    1.659954
  C      0.000000    3.188444    0.685949
  C      0.000000    4.454104    1.293390
  C      0.000000    4.329267   -1.463543
  C      0.000000    5.571232   -0.839163
  H      0.000000    4.264319   -2.548198
  C      0.000000    5.633512    0.553567
  H      0.000000    4.498218    2.379047
  H      0.000000    6.480212   -1.435652
  H      0.000000    6.592647    1.065579
  C      0.000000   -4.329267   -1.463543
  C      0.000000   -4.454104    1.293390
  C      0.000000   -5.571232   -0.839163
  H      0.000000   -4.264319   -2.548198
  C      0.000000   -5.633512    0.553567
  H      0.000000   -4.498218    2.379047
  H      0.000000   -6.480212   -1.435652
  H      0.000000   -6.592647    1.065579

 Total Charge           Charge          ....   -2
 Multiplicity           Mult            ....    2
 Number of Electrons    NEL             ....  175
 Basis Dimension        Dim             ....  475

ORBITAL ENERGIES
----------------
                 SPIN UP ORBITALS
  NO   OCC          E(Eh)            E(eV)    Irrep
   0   1.0000    -318.181221     -8658.1512    1-A1
   1   1.0000     -88.015290     -2395.0178    1-B2
   2   1.0000     -88.015265     -2395.0171    2-A1
   3   1.0000     -88.014190     -2394.9879    2-B2
   4   1.0000     -88.014163     -2394.9871    3-A1
   5   1.0000     -38.026358     -1034.7498    4-A1
   6   1.0000     -33.529519      -912.3846    5-A1
   7   1.0000     -33.528668      -912.3614    3-B2
   8   1.0000     -33.514925      -911.9875    1-B1
   9   1.0000      -9.833612      -267.5862    4-B2
  10   1.0000      -9.833607      -267.5861    6-A1
  11   1.0000      -9.832578      -267.5580    5-B2
  12   1.0000      -9.832574      -267.5579    7-A1
  13   1.0000      -9.824475      -267.3376    6-B2
  14   1.0000      -9.824475      -267.3376    8-A1
  15   1.0000      -9.823967      -267.3237    7-B2
  16   1.0000      -9.823967      -267.3237    9-A1
  17   1.0000      -9.817453      -267.1465    8-B2
  18   1.0000      -9.817452      -267.1465   10-A1
  19   1.0000      -9.816947      -267.1327    9-B2
  20   1.0000      -9.816946      -267.1327   11-A1
  21   1.0000      -7.583789      -206.3654   10-B2
  22   1.0000      -7.583784      -206.3652   12-A1
  23   1.0000      -7.582890      -206.3409   11-B2
  24   1.0000      -7.582884      -206.3408   13-A1
  25   1.0000      -5.507043      -149.8543   12-B2
  26   1.0000      -5.507043      -149.8543   14-A1
  27   1.0000      -5.506093      -149.8284   13-B2
  28   1.0000      -5.506093      -149.8284   15-A1
  29   1.0000      -5.501609      -149.7064   14-B2
  30   1.0000      -5.501609      -149.7064   16-A1
  31   1.0000      -5.500894      -149.6869   15-B2
  32   1.0000      -5.500893      -149.6869   17-A1
  33   1.0000      -5.499866      -149.6590    1-A2
  34   1.0000      -5.499865      -149.6589    2-B1
  35   1.0000      -5.498937      -149.6337    2-A2
  36   1.0000      -5.498937      -149.6337    3-B1
  37   1.0000      -4.024073      -109.5006   18-A1
  38   1.0000      -2.545502       -69.2666   19-A1
  39   1.0000      -2.543958       -69.2246   16-B2
  40   1.0000      -2.516621       -68.4807    4-B1
  41   1.0000      -0.588828       -16.0228   20-A1
  42   1.0000      -0.588710       -16.0196   17-B2
  43   1.0000      -0.504248       -13.7213   21-A1
  44   1.0000      -0.503140       -13.6911   18-B2
  45   1.0000      -0.489549       -13.3213   22-A1
  46   1.0000      -0.489290       -13.3143   19-B2
  47   1.0000      -0.409519       -11.1436   23-A1
  48   1.0000      -0.406793       -11.0694   20-B2
  49   1.0000      -0.387757       -10.5514   24-A1
  50   1.0000      -0.381138       -10.3713   21-B2
  51   1.0000      -0.321939        -8.7604   25-A1
  52   1.0000      -0.319242        -8.6870   22-B2
  53   1.0000      -0.300110        -8.1664   26-A1
  54   1.0000      -0.296483        -8.0677   23-B2
  55   1.0000      -0.232885        -6.3371   27-A1
  56   1.0000      -0.227599        -6.1933   24-B2
  57   1.0000      -0.189685        -5.1616   28-A1
  58   1.0000      -0.188835        -5.1385   25-B2
  59   1.0000      -0.177762        -4.8371   29-A1
  60   1.0000      -0.174687        -4.7535   26-B2
  61   1.0000      -0.146720        -3.9925   30-A1
  62   1.0000      -0.143676        -3.9096   27-B2
  63   1.0000      -0.131114        -3.5678   31-A1
  64   1.0000      -0.116589        -3.1726    5-B1
  65   1.0000      -0.116467        -3.1692    3-A2
  66   1.0000      -0.113686        -3.0936   28-B2
  67   1.0000      -0.086851        -2.3633   32-A1
  68   1.0000      -0.069616        -1.8944   33-A1
  69   1.0000      -0.066231        -1.8022   29-B2
  70   1.0000      -0.060976        -1.6592   30-B2
  71   1.0000      -0.038675        -1.0524    4-A2
  72   1.0000      -0.037273        -1.0143    6-B1
  73   1.0000      -0.030747        -0.8367   31-B2
  74   1.0000      -0.029150        -0.7932   34-A1
  75   1.0000      -0.025988        -0.7072    7-B1
  76   1.0000      -0.019132        -0.5206    5-A2
  77   1.0000      -0.002749        -0.0748    8-B1
  78   1.0000      -0.000935        -0.0254   35-A1
  79   1.0000       0.001390         0.0378    6-A2
  80   1.0000       0.018171         0.4945   36-A1
  81   1.0000       0.018774         0.5109   32-B2
  82   1.0000       0.035358         0.9622   37-A1
  83   1.0000       0.050149         1.3646    7-A2
  84   1.0000       0.052038         1.4160    9-B1
  85   1.0000       0.062399         1.6980   10-B1
  86   1.0000       0.087430         2.3791    8-A2
  87   1.0000       0.104365         2.8399   33-B2
  88   0.0000       0.181311         4.9337   38-A1
  89   0.0000       0.181425         4.9368   34-B2
  90   0.0000       0.196726         5.3532   35-B2
  91   0.0000       0.196890         5.3576   39-A1
  92   0.0000       0.200310         5.4507   11-B1

                 SPIN DOWN ORBITALS
  NO   OCC          E(Eh)            E(eV)    Irrep
   0   1.0000    -318.181047     -8658.1465    1-A1
   1   1.0000     -88.014301     -2394.9909    1-B2
   2   1.0000     -88.014276     -2394.9902    2-A1
   3   1.0000     -88.013037     -2394.9565    2-B2
   4   1.0000     -88.013009     -2394.9557    3-A1
   5   1.0000     -38.010527     -1034.3190    4-A1
   6   1.0000     -33.514395      -911.9730    5-A1
   7   1.0000     -33.513574      -911.9507    3-B2
   8   1.0000     -33.510612      -911.8701    1-B1
   9   1.0000      -9.833717      -267.5890    4-B2
  10   1.0000      -9.833713      -267.5889    6-A1
  11   1.0000      -9.832701      -267.5614    5-B2
  12   1.0000      -9.832697      -267.5613    7-A1
  13   1.0000      -9.824449      -267.3369    6-B2
  14   1.0000      -9.824449      -267.3369    8-A1
  15   1.0000      -9.823949      -267.3232    7-B2
  16   1.0000      -9.823949      -267.3232    9-A1
  17   1.0000      -9.817403      -267.1451    8-B2
  18   1.0000      -9.817403      -267.1451   10-A1
  19   1.0000      -9.816880      -267.1309    9-B2
  20   1.0000      -9.816879      -267.1309   11-A1
  21   1.0000      -7.583111      -206.3470   10-B2
  22   1.0000      -7.583106      -206.3468   12-A1
  23   1.0000      -7.582098      -206.3194   11-B2
  24   1.0000      -7.582091      -206.3192   13-A1
  25   1.0000      -5.506188      -149.8310   12-B2
  26   1.0000      -5.506188      -149.8310   14-A1
  27   1.0000      -5.505083      -149.8009   13-B2
  28   1.0000      -5.505083      -149.8009   15-A1
  29   1.0000      -5.499525      -149.6497   14-B2
  30   1.0000      -5.499525      -149.6497   16-A1
  31   1.0000      -5.499114      -149.6385    1-A2
  32   1.0000      -5.499114      -149.6385    2-B1
  33   1.0000      -5.498474      -149.6211   15-B2
  34   1.0000      -5.498474      -149.6211   17-A1
  35   1.0000      -5.498056      -149.6097    2-A2
  36   1.0000      -5.498055      -149.6097    3-B1
  37   1.0000      -3.990418      -108.5848   18-A1
  38   1.0000      -2.504942       -68.1629    4-B1
  39   1.0000      -2.503539       -68.1248   19-A1
  40   1.0000      -2.501961       -68.0818   16-B2
  41   1.0000      -0.588462       -16.0129   20-A1
  42   1.0000      -0.588355       -16.0100   17-B2
  43   1.0000      -0.502917       -13.6851   21-A1
  44   1.0000      -0.501887       -13.6570   18-B2
  45   1.0000      -0.488512       -13.2931   22-A1
  46   1.0000      -0.488279       -13.2868   19-B2
  47   1.0000      -0.405525       -11.0349   23-A1
  48   1.0000      -0.402731       -10.9589   20-B2
  49   1.0000      -0.384554       -10.4642   24-A1
  50   1.0000      -0.377987       -10.2855   21-B2
  51   1.0000      -0.320730        -8.7275   25-A1
  52   1.0000      -0.317717        -8.6455   22-B2
  53   1.0000      -0.298320        -8.1177   26-A1
  54   1.0000      -0.294258        -8.0072   23-B2
  55   1.0000      -0.232314        -6.3216   27-A1
  56   1.0000      -0.226897        -6.1742   24-B2
  57   1.0000      -0.188700        -5.1348   28-A1
  58   1.0000      -0.187934        -5.1139   25-B2
  59   1.0000      -0.177240        -4.8229   29-A1
  60   1.0000      -0.173830        -4.7302   26-B2
  61   1.0000      -0.146033        -3.9738   30-A1
  62   1.0000      -0.142180        -3.8689   27-B2
  63   1.0000      -0.129880        -3.5342   31-A1
  64   1.0000      -0.116421        -3.1680    5-B1
  65   1.0000      -0.116279        -3.1641    3-A2
  66   1.0000      -0.112801        -3.0695   28-B2
  67   1.0000      -0.085431        -2.3247   32-A1
  68   1.0000      -0.068154        -1.8546   33-A1
  69   1.0000      -0.061162        -1.6643   29-B2
  70   1.0000      -0.049792        -1.3549   30-B2
  71   1.0000      -0.036697        -0.9986    4-A2
  72   1.0000      -0.036357        -0.9893    6-B1
  73   1.0000      -0.022917        -0.6236    7-B1
  74   1.0000      -0.022302        -0.6069   34-A1
  75   1.0000      -0.018330        -0.4988    5-A2
  76   1.0000      -0.001909        -0.0519   31-B2
  77   1.0000       0.006944         0.1890    8-B1
  78   1.0000       0.009827         0.2674   35-A1
  79   1.0000       0.013642         0.3712    6-A2
  80   1.0000       0.025621         0.6972   32-B2
  81   1.0000       0.033994         0.9250   36-A1
  82   1.0000       0.043700         1.1891   37-A1
  83   1.0000       0.053008         1.4424    7-A2
  84   1.0000       0.057625         1.5681    9-B1
  85   1.0000       0.064254         1.7484   10-B1
  86   1.0000       0.091597         2.4925    8-A2
  87   0.0000       0.137333         3.7370   33-B2
  88   0.0000       0.182455         4.9649   38-A1
  89   0.0000       0.182550         4.9674   34-B2
  90   0.0000       0.198636         5.4052   35-B2
  91   0.0000       0.198834         5.4105   39-A1

MULLIKEN ATOMIC CHARGES AND SPIN POPULATIONS
--------------------------------------------
   0 Cu:    0.143600    0.375028
   1 S :   -0.410871    0.174901
   2 C :    0.024495   -0.008112
   3 S :   -0.410871    0.174901
   4 C :    0.024495   -0.008112
   5 S :   -0.437578    0.151391
   6 C :    0.021463   -0.006946
   7 S :   -0.437578    0.151391
   8 C :    0.021463   -0.006946
   9 C :   -0.090907   -0.001582
  10 C :   -0.093311   -0.001629
  11 C :   -0.135802   -0.000505
  12 H :    0.063827    0.002231
  13 C :   -0.138969   -0.001270
  14 H :    0.064122    0.001806
  15 H :    0.030271    0.001167
  16 H :    0.031461    0.001033
  17 C :   -0.093311   -0.001629
  18 C :   -0.090907   -0.001582
  19 C :   -0.135802   -0.000505
  20 H :    0.063827    0.002231
  21 C :   -0.138969   -0.001270
  22 H :    0.064122    0.001806
  23 H :    0.030271    0.001167
  24 H :    0.031461    0.001033
Sum of atomic charges         :   -2.0000000

LOEWDIN ATOMIC CHARGES AND SPIN POPULATIONS
-------------------------------------------
   0 Cu:   -0.887857    0.441184
   1 S :    0.000715    0.133805
   2 C :   -0.037621    0.005689
   3 S :    0.000715    0.133805
   4 C :   -0.037621    0.005689
   5 S :    0.011849    0.115019
   6 C :   -0.037468    0.004603
   7 S :    0.011849    0.115019
   8 C :   -0.037468    0.004603
   9 C :    0.306083    0.003406
  10 C :    0.306498    0.004305
  11 C :    0.311371    0.000104
  12 H :   -0.445720    0.006624
  13 C :    0.311047   -0.000378
  14 H :   -0.446859    0.005819
  15 H :   -0.417198    0.000288
  16 H :   -0.418768    0.000125
  17 C :    0.306498    0.004305
  18 C :    0.306083    0.003406
  19 C :    0.311371    0.000104
  20 H :   -0.445720    0.006624
  21 C :    0.311047   -0.000378
  22 H :   -0.446859    0.005819
  23 H :   -0.417198    0.000288
  24 H :   -0.418768    0.000125

  Mayer bond orders larger than 0.100000
B(  0-Cu,  1-S ) :   0.6927 B(  0-Cu,  3-S ) :   0.6927 B(  0-Cu,  5-S ) :   0.7044
B(  0-Cu,  7-S ) :   0.7044 B(  1-S ,  2-C ) :   1.1894 B(  2-C ,  6-C ) :   1.2443
B(  2-C , 17-C ) :   1.3159 B(  3-S ,  4-C ) :   1.1894 B(  4-C ,  8-C ) :   1.2443
B(  4-C , 10-C ) :   1.3159 B(  5-S ,  6-C ) :   1.1789 B(  6-C , 18-C ) :   1.3203
B(  7-S ,  8-C ) :   1.1789 B(  8-C ,  9-C ) :   1.3203 B(  9-C , 13-C ) :   1.3614
B(  9-C , 14-H ) :   0.9705 B( 10-C , 11-C ) :   1.3633 B( 10-C , 12-H ) :   0.9701
B( 11-C , 13-C ) :   1.3391 B( 11-C , 15-H ) :   0.9885 B( 13-C , 16-H ) :   0.9886
B( 17-C , 19-C ) :   1.3633 B( 17-C , 20-H ) :   0.9701 B( 18-C , 21-C ) :   1.3614
B( 18-C , 22-H ) :   0.9705 B( 19-C , 21-C ) :   1.3391 B( 19-C , 23-H ) :   0.9885
B( 21-C , 24-H ) :   0.9886

FINAL SINGLE POINT ENERGY     -3686.928044506466

DIPOLE MOMENT
-------------
                                X             Y             Z
Electronic contribution:     -0.00000       0.00000       1.54462
Nuclear contribution   :      0.00000       0.00000      -1.62421
                        -----------------------------------------
Total Dipole Moment    :     -0.00000       0.00000      -0.07959
                        -----------------------------------------
Magnitude (a.u.)       :      0.07959
Magnitude (Debye)      :      0.20229

Rotational constants in cm-1:     0.033275     0.004789     0.004186
Rotational constants in MHz :   997.559208   143.560297   125.499472

                             ****ORCA TERMINATED NORMALLY****
TOTAL RUN TIME: 0 days 5 hours 55 minutes 13 seconds 639 msec
