                         Program Version 5.0.4 -  RELEASE  -
|  1> ! RIJCOSX nofrozencore ReducedPop printbasis
|  2> ! M06L ano-rcc-dzp autoaux
|  3>
|  4> %maxcore 5000
|  5> %basis
|  6> PCDTrimBas overlap
|  7> PCDTrimAuxJ Coulomb
|  8> PCDTrimAuxJK Coulomb
|  9> PCDTrimAuxC Coulomb
| 10> PCDThresh -1
| 11> end
| 12>
| 13> %basis
| 14> newgto Cu "ano-rcc-tzp" end
| 15> newgto S "ano-rcc-tzp" end
| 16> end
| 17>
| 18> %pal
| 19> nprocs 12
| 20> end
| 21>
| 22> % sym SymThresh 1e-2 end
| 23> * xyz -2 2
| 24> Cu -0.00626899797024289 0.0029080243953472453 -0.003597601918661349
| 25> S 1.2641849343130196 1.8488360270183268 -0.5986490655017138
| 26> C 1.801938635330926 1.4972257002638012 -2.229327939281318
| 27> S -0.6239245194070464 0.9933595893830226 1.99966988529469
| 28> C -1.7780577501403187 -0.12533902872572555 2.698379332361749
| 29> S 0.7054029861592984 -1.0311553216732117 -1.9529116809199436
| 30> C 1.5557718438030694 0.22845165397124761 -2.825942972823301
| 31> S -1.1827088814991467 -1.8866306395455603 0.6454058845850013
| 32> C -2.0242269556065544 -1.3941119552553236 2.101762913528307
| 33> C -2.8038723152782516 -2.322456958537867 2.8079135974794913
| 34> C -2.3272619104364907 0.13409081174994955 3.9630481600965615
| 35> C -2.983731825941758 -0.8542551175764136 4.7094050066884
| 36> H -2.12402954988086 1.099541502927489 4.415269618840832
| 37> C -3.224603963924957 -2.0957039936244133 4.125634018262664
| 38> H -2.975945175739747 -3.2915087483093473 2.3504936009792403
| 39> H -3.3005771906467336 -0.6552379194756109 5.739503952923701
| 40> H -3.7331575128968524 -2.8848497815199683 4.691080159489921
| 41> C 2.654544714494671 2.391725610827405 -2.893607407152132
| 42> C 2.1779233759870014 -0.06481604586572248 -4.0487504596991055
| 43> C 3.3738923736814805 2.026453000152207 -4.039961591517061
| 44> H 2.8459795380609303 3.3517964125773605 -2.425077231360483
| 45> C 3.133026672867292 0.7850011380696592 -4.623728885832239
| 46> H 1.9940234432625934 -1.039234545299277 -4.489877580913181
| 47> H 4.118503520375858 2.7060988064502403 -4.469940585388831
| 48> H 3.6859111284338453 0.4764925432206606 -5.5183713052799055
| 49> *
| 50>
| 51> % eprnmr
| 52> gtensor true
| 53> Nuclei = all H {aiso,adip,aorb,fgrad,rho}
| 54> Nuclei = all Cu {aiso,adip,aorb,fgrad,rho}
| 55> end
| 56>
| 57>                          ****END OF INPUT****

CARTESIAN COORDINATES (ANGSTROEM)
---------------------------------
  Cu     0.000000    0.000000   -0.007791
  S      1.615597   -1.661931    0.050629
  C      0.711747   -3.151642   -0.138127
  S      1.615597    1.661931    0.050629
  C      0.711747    3.151642   -0.138127
  S     -1.615597   -1.661931    0.050629
  C     -0.711747   -3.151642   -0.138127
  S     -1.615597    1.661931    0.050629
  C     -0.711747    3.151642   -0.138127
  C     -1.378053    4.385460   -0.092794
  C      1.378053    4.385460   -0.092794
  C      0.696420    5.596188    0.092769
  H      2.463249    4.375043   -0.080772
  C     -0.696420    5.596188    0.092769
  H     -2.463249    4.375043   -0.080772
  H      1.250749    6.530201    0.239447
  H     -1.250749    6.530201    0.239447
  C      1.378053   -4.385460   -0.092794
  C     -1.378053   -4.385460   -0.092794
  C      0.696420   -5.596188    0.092769
  H      2.463249   -4.375043   -0.080772
  C     -0.696420   -5.596188    0.092769
  H     -2.463249   -4.375043   -0.080772
  H      1.250749   -6.530201    0.239447
  H     -1.250749   -6.530201    0.239447

 Total Charge           Charge          ....   -2
 Multiplicity           Mult            ....    2
 Number of Electrons    NEL             ....  175
 Basis Dimension        Dim             ....  475

ORBITAL ENERGIES
----------------
                 SPIN UP ORBITALS
  NO   OCC          E(Eh)            E(eV)    Irrep
   0   1.0000    -318.181418     -8658.1565    1-A1
   1   1.0000     -88.015101     -2395.0126    1-B2
   2   1.0000     -88.015089     -2395.0123    1-A2
   3   1.0000     -88.015086     -2395.0122    1-B1
   4   1.0000     -88.015052     -2395.0113    2-A1
   5   1.0000     -38.026623     -1034.7570    3-A1
   6   1.0000     -33.529696      -912.3894    2-B1
   7   1.0000     -33.528943      -912.3689    2-B2
   8   1.0000     -33.515206      -911.9951    4-A1
   9   1.0000      -9.834202      -267.6022    3-B2
  10   1.0000      -9.834196      -267.6021    5-A1
  11   1.0000      -9.833870      -267.5932    2-A2
  12   1.0000      -9.833868      -267.5931    3-B1
  13   1.0000      -9.826938      -267.4046    4-B2
  14   1.0000      -9.826938      -267.4046    6-A1
  15   1.0000      -9.826508      -267.3929    3-A2
  16   1.0000      -9.826508      -267.3929    4-B1
  17   1.0000      -9.818549      -267.1763    4-A2
  18   1.0000      -9.818548      -267.1763    5-B1
  19   1.0000      -9.818544      -267.1762    5-B2
  20   1.0000      -9.818543      -267.1761    7-A1
  21   1.0000      -7.583540      -206.3586    5-A2
  22   1.0000      -7.583540      -206.3586    6-B1
  23   1.0000      -7.583536      -206.3585    6-B2
  24   1.0000      -7.583525      -206.3582    8-A1
  25   1.0000      -5.506853      -149.8491    6-A2
  26   1.0000      -5.506852      -149.8491    7-B1
  27   1.0000      -5.506852      -149.8491    7-B2
  28   1.0000      -5.506852      -149.8491    9-A1
  29   1.0000      -5.501451      -149.7021    7-A2
  30   1.0000      -5.501451      -149.7021    8-B1
  31   1.0000      -5.501451      -149.7021    8-B2
  32   1.0000      -5.501450      -149.7021   10-A1
  33   1.0000      -5.499553      -149.6504    8-A2
  34   1.0000      -5.499552      -149.6504    9-B1
  35   1.0000      -5.499552      -149.6504    9-B2
  36   1.0000      -5.499552      -149.6504   11-A1
  37   1.0000      -4.024280      -109.5062   12-A1
  38   1.0000      -2.545588       -69.2690   10-B1
  39   1.0000      -2.544209       -69.2315   10-B2
  40   1.0000      -2.516882       -68.4878   13-A1
  41   1.0000      -0.588155       -16.0045   14-A1
  42   1.0000      -0.588036       -16.0013   11-B2
  43   1.0000      -0.503480       -13.7004   15-A1
  44   1.0000      -0.502417       -13.6715   12-B2
  45   1.0000      -0.488437       -13.2911   11-B1
  46   1.0000      -0.488182       -13.2841    9-A2
  47   1.0000      -0.407179       -11.0799   12-B1
  48   1.0000      -0.404491       -11.0068   10-A2
  49   1.0000      -0.388028       -10.5588   16-A1
  50   1.0000      -0.381305       -10.3758   13-B2
  51   1.0000      -0.322442        -8.7741   17-A1
  52   1.0000      -0.319708        -8.6997   14-B2
  53   1.0000      -0.299513        -8.1502   13-B1
  54   1.0000      -0.296032        -8.0555   11-A2
  55   1.0000      -0.232185        -6.3181   18-A1
  56   1.0000      -0.227154        -6.1812   15-B2
  57   1.0000      -0.188871        -5.1394   19-A1
  58   1.0000      -0.188064        -5.1175   16-B2
  59   1.0000      -0.178149        -4.8477   14-B1
  60   1.0000      -0.175212        -4.7678   12-A2
  61   1.0000      -0.145177        -3.9505   15-B1
  62   1.0000      -0.142350        -3.8735   13-A2
  63   1.0000      -0.131862        -3.5881   20-A1
  64   1.0000      -0.117019        -3.1843   17-B2
  65   1.0000      -0.116852        -3.1797   21-A1
  66   1.0000      -0.113771        -3.0959   18-B2
  67   1.0000      -0.085224        -2.3191   22-A1
  68   1.0000      -0.069610        -1.8942   16-B1
  69   1.0000      -0.065341        -1.7780   14-A2
  70   1.0000      -0.061796        -1.6816   19-B2
  71   1.0000      -0.038077        -1.0361   20-B2
  72   1.0000      -0.036753        -1.0001   23-A1
  73   1.0000      -0.031754        -0.8641   15-A2
  74   1.0000      -0.029702        -0.8082   24-A1
  75   1.0000      -0.025527        -0.6946   17-B1
  76   1.0000      -0.017758        -0.4832   16-A2
  77   1.0000      -0.002366        -0.0644   18-B1
  78   1.0000      -0.001079        -0.0294   25-A1
  79   1.0000       0.001227         0.0334   21-B2
  80   1.0000       0.017993         0.4896   26-A1
  81   1.0000       0.018494         0.5032   22-B2
  82   1.0000       0.034743         0.9454   19-B1
  83   1.0000       0.051456         1.4002   17-A2
  84   1.0000       0.053093         1.4447   20-B1
  85   1.0000       0.061971         1.6863   27-A1
  86   1.0000       0.086783         2.3615   23-B2
  87   1.0000       0.105142         2.8611   18-A2
  88   0.0000       0.180820         4.9204   28-A1
  89   0.0000       0.181062         4.9270   24-B2
  90   0.0000       0.196269         5.3407   29-A1
  91   0.0000       0.196819         5.3557   19-A2
  92   0.0000       0.196981         5.3601   21-B1

                 SPIN DOWN ORBITALS
  NO   OCC          E(Eh)            E(eV)    Irrep
   0   1.0000    -318.181244     -8658.1518    1-A1
   1   1.0000     -88.014032     -2394.9836    1-B2
   2   1.0000     -88.014020     -2394.9832    1-A2
   3   1.0000     -88.014017     -2394.9832    1-B1
   4   1.0000     -88.013984     -2394.9823    2-A1
   5   1.0000     -38.010791     -1034.3262    3-A1
   6   1.0000     -33.514574      -911.9779    2-B1
   7   1.0000     -33.513848      -911.9582    2-B2
   8   1.0000     -33.510890      -911.8777    4-A1
   9   1.0000      -9.834321      -267.6055    3-B2
  10   1.0000      -9.834315      -267.6053    5-A1
  11   1.0000      -9.833989      -267.5964    2-A2
  12   1.0000      -9.833986      -267.5964    3-B1
  13   1.0000      -9.826907      -267.4037    4-B2
  14   1.0000      -9.826907      -267.4037    6-A1
  15   1.0000      -9.826477      -267.3920    3-A2
  16   1.0000      -9.826477      -267.3920    4-B1
  17   1.0000      -9.818495      -267.1748    4-A2
  18   1.0000      -9.818494      -267.1748    5-B1
  19   1.0000      -9.818490      -267.1747    5-B2
  20   1.0000      -9.818489      -267.1747    7-A1
  21   1.0000      -7.582808      -206.3387    6-B1
  22   1.0000      -7.582808      -206.3387    5-A2
  23   1.0000      -7.582805      -206.3386    6-B2
  24   1.0000      -7.582793      -206.3383    8-A1
  25   1.0000      -5.505927      -149.8239    6-A2
  26   1.0000      -5.505927      -149.8239    7-B1
  27   1.0000      -5.505927      -149.8239    7-B2
  28   1.0000      -5.505926      -149.8239    9-A1
  29   1.0000      -5.499213      -149.6412    7-A2
  30   1.0000      -5.499213      -149.6412    8-B1
  31   1.0000      -5.499212      -149.6412    8-B2
  32   1.0000      -5.499212      -149.6412   10-A1
  33   1.0000      -5.498730      -149.6281    8-A2
  34   1.0000      -5.498730      -149.6280    9-B1
  35   1.0000      -5.498730      -149.6280    9-B2
  36   1.0000      -5.498730      -149.6280   11-A1
  37   1.0000      -3.990638      -108.5908   12-A1
  38   1.0000      -2.505204       -68.1701   13-A1
  39   1.0000      -2.503640       -68.1275   10-B1
  40   1.0000      -2.502236       -68.0893   10-B2
  41   1.0000      -0.587790       -15.9946   14-A1
  42   1.0000      -0.587681       -15.9916   11-B2
  43   1.0000      -0.502197       -13.6655   15-A1
  44   1.0000      -0.501205       -13.6385   12-B2
  45   1.0000      -0.487395       -13.2627   11-B1
  46   1.0000      -0.487165       -13.2564    9-A2
  47   1.0000      -0.403175       -10.9709   12-B1
  48   1.0000      -0.400391       -10.8952   10-A2
  49   1.0000      -0.384774       -10.4702   16-A1
  50   1.0000      -0.378122       -10.2892   13-B2
  51   1.0000      -0.321222        -8.7409   17-A1
  52   1.0000      -0.318157        -8.6575   14-B2
  53   1.0000      -0.297728        -8.1016   13-B1
  54   1.0000      -0.293815        -7.9951   11-A2
  55   1.0000      -0.231622        -6.3028   18-A1
  56   1.0000      -0.226472        -6.1626   15-B2
  57   1.0000      -0.187931        -5.1139   19-A1
  58   1.0000      -0.187206        -5.0941   16-B2
  59   1.0000      -0.177632        -4.8336   14-B1
  60   1.0000      -0.174353        -4.7444   12-A2
  61   1.0000      -0.144510        -3.9323   15-B1
  62   1.0000      -0.140901        -3.8341   13-A2
  63   1.0000      -0.130597        -3.5537   20-A1
  64   1.0000      -0.116729        -3.1763   17-B2
  65   1.0000      -0.116648        -3.1741   21-A1
  66   1.0000      -0.112940        -3.0733   18-B2
  67   1.0000      -0.083833        -2.2812   22-A1
  68   1.0000      -0.068090        -1.8528   16-B1
  69   1.0000      -0.060085        -1.6350   19-B2
  70   1.0000      -0.050704        -1.3797   14-A2
  71   1.0000      -0.036071        -0.9815   20-B2
  72   1.0000      -0.035808        -0.9744   23-A1
  73   1.0000      -0.022886        -0.6228   24-A1
  74   1.0000      -0.022256        -0.6056   17-B1
  75   1.0000      -0.017767        -0.4835   15-A2
  76   1.0000      -0.002227        -0.0606   16-A2
  77   1.0000       0.007322         0.1993   18-B1
  78   1.0000       0.009647         0.2625   25-A1
  79   1.0000       0.013279         0.3613   21-B2
  80   1.0000       0.025496         0.6938   22-B2
  81   1.0000       0.033757         0.9186   26-A1
  82   1.0000       0.042775         1.1640   19-B1
  83   1.0000       0.054341         1.4787   17-A2
  84   1.0000       0.058752         1.5987   20-B1
  85   1.0000       0.063927         1.7395   27-A1
  86   1.0000       0.090942         2.4747   23-B2
  87   0.0000       0.137982         3.7547   18-A2
  88   0.0000       0.181779         4.9465   28-A1
  89   0.0000       0.182018         4.9530   24-B2
  90   0.0000       0.196352         5.3430   29-A1
  91   0.0000       0.198406         5.3989   19-A2

MULLIKEN ATOMIC CHARGES AND SPIN POPULATIONS
--------------------------------------------
   0 Cu:    0.144525    0.374423
   1 S :   -0.423901    0.162808
   2 C :    0.022528   -0.007621
   3 S :   -0.423901    0.162808
   4 C :    0.022528   -0.007621
   5 S :   -0.423901    0.162808
   6 C :    0.022528   -0.007621
   7 S :   -0.423901    0.162808
   8 C :    0.022528   -0.007621
   9 C :   -0.098561   -0.001908
  10 C :   -0.098561   -0.001908
  11 C :   -0.129253    0.000195
  12 H :    0.069634    0.001997
  13 C :   -0.129253    0.000195
  14 H :    0.069634    0.001997
  15 H :    0.023422    0.000923
  16 H :    0.023422    0.000923
  17 C :   -0.098561   -0.001908
  18 C :   -0.098561   -0.001908
  19 C :   -0.129253    0.000195
  20 H :    0.069634    0.001997
  21 C :   -0.129253    0.000195
  22 H :    0.069634    0.001997
  23 H :    0.023422    0.000923
  24 H :    0.023422    0.000923
Sum of atomic charges         :   -2.0000000

LOEWDIN ATOMIC CHARGES AND SPIN POPULATIONS
-------------------------------------------
   0 Cu:   -0.896404    0.440955
   1 S :    0.006035    0.124311
   2 C :   -0.035136    0.004651
   3 S :    0.006035    0.124311
   4 C :   -0.035136    0.004651
   5 S :    0.006035    0.124311
   6 C :   -0.035136    0.004651
   7 S :    0.006035    0.124311
   8 C :   -0.035136    0.004651
   9 C :    0.307529    0.003786
  10 C :    0.307529    0.003786
  11 C :    0.308062    0.000504
  12 H :   -0.452089    0.006183
  13 C :    0.308062    0.000504
  14 H :   -0.452089    0.006183
  15 H :   -0.410301    0.000326
  16 H :   -0.410301    0.000326
  17 C :    0.307529    0.003786
  18 C :    0.307529    0.003786
  19 C :    0.308062    0.000504
  20 H :   -0.452089    0.006183
  21 C :    0.308062    0.000504
  22 H :   -0.452089    0.006183
  23 H :   -0.410301    0.000326
  24 H :   -0.410301    0.000326

  Mayer bond orders larger than 0.100000
B(  0-Cu,  1-S ) :   0.6992 B(  0-Cu,  3-S ) :   0.6992 B(  0-Cu,  5-S ) :   0.6992
B(  0-Cu,  7-S ) :   0.6992 B(  1-S ,  2-C ) :   1.1791 B(  2-C ,  6-C ) :   1.2449
B(  2-C , 17-C ) :   1.3232 B(  3-S ,  4-C ) :   1.1791 B(  4-C ,  8-C ) :   1.2449
B(  4-C , 10-C ) :   1.3232 B(  5-S ,  6-C ) :   1.1791 B(  6-C , 18-C ) :   1.3232
B(  7-S ,  8-C ) :   1.1791 B(  8-C ,  9-C ) :   1.3232 B(  9-C , 13-C ) :   1.3579
B(  9-C , 14-H ) :   0.9682 B( 10-C , 11-C ) :   1.3579 B( 10-C , 12-H ) :   0.9682
B( 11-C , 13-C ) :   1.3430 B( 11-C , 15-H ) :   0.9917 B( 13-C , 16-H ) :   0.9917
B( 17-C , 19-C ) :   1.3579 B( 17-C , 20-H ) :   0.9682 B( 18-C , 21-C ) :   1.3579
B( 18-C , 22-H ) :   0.9682 B( 19-C , 21-C ) :   1.3430 B( 19-C , 23-H ) :   0.9917
B( 21-C , 24-H ) :   0.9917

FINAL SINGLE POINT ENERGY     -3686.918560832698

DIPOLE MOMENT
-------------
                                X             Y             Z
Electronic contribution:      0.00000      -0.00000      -0.64862
Nuclear contribution   :     -0.00000      -0.00000       0.63002
                        -----------------------------------------
Total Dipole Moment    :      0.00000      -0.00000      -0.01860
                        -----------------------------------------
Magnitude (a.u.)       :      0.01860
Magnitude (Debye)      :      0.04728

Rotational constants in cm-1:     0.033269     0.004801     0.004200
Rotational constants in MHz :   997.376662   143.922575   125.919615

                             ****ORCA TERMINATED NORMALLY****
TOTAL RUN TIME: 0 days 6 hours 50 minutes 32 seconds 597 msec
