                         Program Version 5.0.4 -  RELEASE  -
|  1> ! RIJCOSX nofrozencore ReducedPop printbasis
|  2> ! M06L ano-rcc-dzp autoaux
|  3>
|  4> %maxcore 5000
|  5> %basis
|  6> PCDTrimBas overlap
|  7> PCDTrimAuxJ Coulomb
|  8> PCDTrimAuxJK Coulomb
|  9> PCDTrimAuxC Coulomb
| 10> PCDThresh -1
| 11> end
| 12>
| 13> %basis
| 14> newgto Cu "ano-rcc-tzp" end
| 15> newgto S "ano-rcc-tzp" end
| 16> end
| 17>
| 18> %pal
| 19> nprocs 12
| 20> end
| 21>
| 22> % sym SymThresh 1e-2 end
| 23> * xyz -2 2
| 24> Cu 7.217068755005624e-05 -0.00015300915046461875 -6.434742988377872e-05
| 25> S 2.0988143550646905 0.694549259371898 0.6962419166319535
| 26> C 2.237283134433374 0.10147821715411373 2.3289842582596387
| 27> S 0.2825771817441954 1.0028924410472555 -2.0703927283531947
| 28> C -1.2009725671528961 0.6734735624495838 -2.9229456544057824
| 29> S -0.2813311408679859 -1.005534173617432 2.0692817575333784
| 30> C 1.1887155122617983 -0.6474873675032723 2.933874052166155
| 31> S -2.097568314188481 -0.6971909919420745 -0.6973528874517702
| 32> C -2.249525834933578 -0.07552245496701067 -2.318068658883111
| 33> C -3.3997871790186367 -0.342885458374627 -3.075049475922416
| 34> C -1.369623533399046 1.1072857995989294 -4.246185327087841
| 35> C -2.5499098552770114 0.8961866234829068 -4.949479504280372
| 36> H -0.6355745678516674 1.8278514497546239 -4.635331894255694
| 37> C -3.5759319754979755 0.16342309862596488 -4.357584666511442
| 38> H -4.264767090874195 -0.7636591997335974 -2.5416707099088773
| 39> H -2.615608410264069 1.1974430214839522 -5.994864790625578
| 40> H -4.457925682156165 -0.11939632465865681 -4.9321846404257315
| 41> C 3.437357655981576 0.2632311850039735 3.0415502957597544
| 42> C 1.4071616093224548 -1.1868692480775538 4.212717674806593
| 43> C 3.5556272908454254 -0.12037511537121472 4.375688335969849
| 44> H 4.058015615298821 1.201993220220142 2.7260104540567607
| 45> C 2.5296502274625454 -0.8532341652778942 4.967543001033935
| 46> H 0.42915259333722355 -1.3902149391063345 4.819379174600034
| 47> H 4.562968262735103 -0.10330247289172481 4.838528842116543
| 48> H 2.7202478716987355 -1.4192871657132302 5.901568413596017
| 49> *
| 50>
| 51> % eprnmr
| 52> gtensor true
| 53> Nuclei = all H {aiso,adip,aorb,fgrad,rho}
| 54> Nuclei = all Cu {aiso,adip,aorb,fgrad,rho}
| 55> end
| 56>
| 57>                          ****END OF INPUT****

CARTESIAN COORDINATES (ANGSTROEM)
---------------------------------
  Cu    -0.000175   -0.000046    0.000000
  S     -0.423421    1.607089    1.615597
  C     -0.777941    3.054198    0.711747
  S      0.420398   -1.607881    1.615597
  C      0.807660   -3.046410    0.711747
  S     -0.423421    1.607089   -1.615597
  C     -0.777941    3.054198   -0.711747
  S      0.420398   -1.607881   -1.615597
  C      0.807660   -3.046410   -0.711747
  C      1.085146   -4.249173   -1.378053
  C      1.085146   -4.249173    1.378053
  C      1.432891   -5.409654    0.696420
  H      1.255133   -4.193858    2.463249
  C      1.432891   -5.409654   -0.696420
  H      1.255133   -4.193858   -2.463249
  H      1.581407   -6.336286    1.250748
  H      1.581407   -6.336286   -1.250748
  C     -1.176254    4.225298    1.378053
  C     -1.176254    4.225298   -1.378053
  C     -1.383686    5.422549    0.696420
  H     -0.753947    4.325196    2.463249
  C     -1.383686    5.422549   -0.696420
  H     -0.753947    4.325196   -2.463249
  H     -1.835752    6.269634    1.250749
  H     -1.835752    6.269634   -1.250749

 Total Charge           Charge          ....   -2
 Multiplicity           Mult            ....    2
 Number of Electrons    NEL             ....  175
 Basis Dimension        Dim             ....  475

ORBITAL ENERGIES
----------------
                 SPIN UP ORBITALS
  NO   OCC          E(Eh)            E(eV)    Irrep
   0   1.0000    -318.183567     -8658.2150    1-A'
   1   1.0000     -88.017717     -2395.0839    1-A"
   2   1.0000     -88.017708     -2395.0836    2-A'
   3   1.0000     -88.016421     -2395.0486    2-A"
   4   1.0000     -88.016410     -2395.0483    3-A'
   5   1.0000     -38.028801     -1034.8163    4-A'
   6   1.0000     -33.531918      -912.4499    3-A"
   7   1.0000     -33.531080      -912.4271    5-A'
   8   1.0000     -33.517356      -912.0536    6-A'
   9   1.0000      -9.836771      -267.6721    7-A'
  10   1.0000      -9.836442      -267.6632    4-A"
  11   1.0000      -9.834524      -267.6110    8-A'
  12   1.0000      -9.834194      -267.6020    5-A"
  13   1.0000      -9.826022      -267.3797    9-A'
  14   1.0000      -9.825598      -267.3681    6-A"
  15   1.0000      -9.825201      -267.3573   10-A'
  16   1.0000      -9.824771      -267.3456    7-A"
  17   1.0000      -9.823329      -267.3064    8-A"
  18   1.0000      -9.823327      -267.3063   11-A'
  19   1.0000      -9.818801      -267.1831    9-A"
  20   1.0000      -9.818796      -267.1830   12-A'
  21   1.0000      -7.586355      -206.4352   10-A"
  22   1.0000      -7.586346      -206.4350   13-A'
  23   1.0000      -7.585114      -206.4014   11-A"
  24   1.0000      -7.585104      -206.4012   14-A'
  25   1.0000      -5.509561      -149.9228   12-A"
  26   1.0000      -5.509561      -149.9228   15-A'
  27   1.0000      -5.508309      -149.8887   13-A"
  28   1.0000      -5.508308      -149.8887   16-A'
  29   1.0000      -5.504209      -149.7772   14-A"
  30   1.0000      -5.504209      -149.7771   17-A'
  31   1.0000      -5.503020      -149.7448   15-A"
  32   1.0000      -5.503020      -149.7448   18-A'
  33   1.0000      -5.502497      -149.7305   16-A"
  34   1.0000      -5.502496      -149.7305   19-A'
  35   1.0000      -5.501190      -149.6950   17-A"
  36   1.0000      -5.501190      -149.6950   20-A'
  37   1.0000      -4.026407      -109.5641   21-A'
  38   1.0000      -2.547813       -69.3295   18-A"
  39   1.0000      -2.546284       -69.2879   22-A'
  40   1.0000      -2.518952       -68.5442   23-A'
  41   1.0000      -0.590969       -16.0811   24-A'
  42   1.0000      -0.590846       -16.0777   25-A'
  43   1.0000      -0.506157       -13.7732   26-A'
  44   1.0000      -0.505049       -13.7431   27-A'
  45   1.0000      -0.490839       -13.3564   19-A"
  46   1.0000      -0.488327       -13.2881   20-A"
  47   1.0000      -0.410988       -11.1836   21-A"
  48   1.0000      -0.408302       -11.1105   22-A"
  49   1.0000      -0.389057       -10.5868   28-A'
  50   1.0000      -0.382200       -10.4002   29-A'
  51   1.0000      -0.320856        -8.7309   30-A'
  52   1.0000      -0.313726        -8.5369   31-A'
  53   1.0000      -0.300091        -8.1659   23-A"
  54   1.0000      -0.295572        -8.0429   24-A"
  55   1.0000      -0.231045        -6.2870   32-A'
  56   1.0000      -0.221877        -6.0376   33-A'
  57   1.0000      -0.191145        -5.2013   34-A'
  58   1.0000      -0.189936        -5.1684   35-A'
  59   1.0000      -0.175037        -4.7630   25-A"
  60   1.0000      -0.163705        -4.4546   26-A"
  61   1.0000      -0.144786        -3.9398   27-A"
  62   1.0000      -0.138660        -3.7731   36-A'
  63   1.0000      -0.134776        -3.6674   28-A"
  64   1.0000      -0.129372        -3.5204   37-A'
  65   1.0000      -0.119507        -3.2520   38-A'
  66   1.0000      -0.103737        -2.8228   39-A'
  67   1.0000      -0.077904        -2.1199   40-A'
  68   1.0000      -0.070959        -1.9309   29-A"
  69   1.0000      -0.066892        -1.8202   30-A"
  70   1.0000      -0.058922        -1.6034   41-A'
  71   1.0000      -0.039394        -1.0720   42-A'
  72   1.0000      -0.036654        -0.9974   43-A'
  73   1.0000      -0.034241        -0.9318   31-A"
  74   1.0000      -0.030453        -0.8287   44-A'
  75   1.0000      -0.027608        -0.7512   32-A"
  76   1.0000      -0.019736        -0.5370   33-A"
  77   1.0000      -0.004762        -0.1296   34-A"
  78   1.0000      -0.002726        -0.0742   45-A'
  79   1.0000      -0.000934        -0.0254   46-A'
  80   1.0000       0.016185         0.4404   47-A'
  81   1.0000       0.016929         0.4607   48-A'
  82   1.0000       0.032722         0.8904   35-A"
  83   1.0000       0.047289         1.2868   36-A"
  84   1.0000       0.049919         1.3584   37-A"
  85   1.0000       0.059619         1.6223   49-A'
  86   1.0000       0.084550         2.3007   50-A'
  87   1.0000       0.103081         2.8050   38-A"
  88   0.0000       0.179690         4.8896   51-A'
  89   0.0000       0.180792         4.9196   52-A'
  90   0.0000       0.182731         4.9724   53-A'
  91   0.0000       0.196360         5.3432   39-A"
  92   0.0000       0.197301         5.3688   54-A'

                 SPIN DOWN ORBITALS
  NO   OCC          E(Eh)            E(eV)    Irrep
   0   1.0000    -318.183394     -8658.2103    1-A'
   1   1.0000     -88.016641     -2395.0546    1-A"
   2   1.0000     -88.016631     -2395.0543    2-A'
   3   1.0000     -88.015347     -2395.0193    2-A"
   4   1.0000     -88.015335     -2395.0190    3-A'
   5   1.0000     -38.012945     -1034.3848    4-A'
   6   1.0000     -33.516773      -912.0378    3-A"
   7   1.0000     -33.515966      -912.0158    5-A'
   8   1.0000     -33.513031      -911.9359    6-A'
   9   1.0000      -9.836886      -267.6753    7-A'
  10   1.0000      -9.836556      -267.6663    4-A"
  11   1.0000      -9.834639      -267.6141    8-A'
  12   1.0000      -9.834309      -267.6051    5-A"
  13   1.0000      -9.825997      -267.3790    9-A'
  14   1.0000      -9.825573      -267.3674    6-A"
  15   1.0000      -9.825178      -267.3567   10-A'
  16   1.0000      -9.824748      -267.3450    7-A"
  17   1.0000      -9.823278      -267.3050    8-A"
  18   1.0000      -9.823276      -267.3049   11-A'
  19   1.0000      -9.818743      -267.1816    9-A"
  20   1.0000      -9.818738      -267.1815   12-A'
  21   1.0000      -7.585621      -206.4152   10-A"
  22   1.0000      -7.585612      -206.4150   13-A'
  23   1.0000      -7.584382      -206.3815   11-A"
  24   1.0000      -7.584372      -206.3813   14-A'
  25   1.0000      -5.508630      -149.8974   12-A"
  26   1.0000      -5.508629      -149.8974   15-A'
  27   1.0000      -5.507376      -149.8633   13-A"
  28   1.0000      -5.507376      -149.8633   16-A'
  29   1.0000      -5.501956      -149.7158   14-A"
  30   1.0000      -5.501956      -149.7158   17-A'
  31   1.0000      -5.501674      -149.7082   15-A"
  32   1.0000      -5.501674      -149.7082   18-A'
  33   1.0000      -5.500776      -149.6837   16-A"
  34   1.0000      -5.500775      -149.6837   19-A'
  35   1.0000      -5.500372      -149.6727   17-A"
  36   1.0000      -5.500372      -149.6727   20-A'
  37   1.0000      -3.992736      -108.6479   21-A'
  38   1.0000      -2.507237       -68.2254   22-A'
  39   1.0000      -2.505825       -68.1870   18-A"
  40   1.0000      -2.504291       -68.1452   23-A'
  41   1.0000      -0.590598       -16.0710   24-A'
  42   1.0000      -0.590486       -16.0679   25-A'
  43   1.0000      -0.504819       -13.7368   26-A'
  44   1.0000      -0.503784       -13.7087   27-A'
  45   1.0000      -0.489781       -13.3276   19-A"
  46   1.0000      -0.487206       -13.2575   20-A"
  47   1.0000      -0.407018       -11.0755   21-A"
  48   1.0000      -0.404241       -11.0000   22-A"
  49   1.0000      -0.385766       -10.4972   28-A'
  50   1.0000      -0.378931       -10.3112   29-A'
  51   1.0000      -0.319560        -8.6957   30-A'
  52   1.0000      -0.312368        -8.5000   31-A'
  53   1.0000      -0.298241        -8.1156   23-A"
  54   1.0000      -0.293365        -7.9829   24-A"
  55   1.0000      -0.230442        -6.2707   32-A'
  56   1.0000      -0.221261        -6.0208   33-A'
  57   1.0000      -0.190171        -5.1748   34-A'
  58   1.0000      -0.189039        -5.1440   35-A'
  59   1.0000      -0.174363        -4.7447   25-A"
  60   1.0000      -0.162715        -4.4277   26-A"
  61   1.0000      -0.143753        -3.9117   27-A"
  62   1.0000      -0.138071        -3.7571   36-A'
  63   1.0000      -0.133726        -3.6389   28-A"
  64   1.0000      -0.128736        -3.5031   37-A'
  65   1.0000      -0.118820        -3.2333   38-A'
  66   1.0000      -0.102666        -2.7937   39-A'
  67   1.0000      -0.076450        -2.0803   40-A'
  68   1.0000      -0.069510        -1.8915   29-A"
  69   1.0000      -0.057317        -1.5597   41-A'
  70   1.0000      -0.052726        -1.4348   30-A"
  71   1.0000      -0.037871        -1.0305   42-A'
  72   1.0000      -0.035243        -0.9590   43-A'
  73   1.0000      -0.024404        -0.6641   31-A"
  74   1.0000      -0.023899        -0.6503   44-A'
  75   1.0000      -0.019562        -0.5323   32-A"
  76   1.0000      -0.004520        -0.1230   33-A"
  77   1.0000       0.004703         0.1280   34-A"
  78   1.0000       0.008081         0.2199   45-A'
  79   1.0000       0.011298         0.3074   46-A'
  80   1.0000       0.023781         0.6471   47-A'
  81   1.0000       0.031872         0.8673   48-A'
  82   1.0000       0.041073         1.1176   35-A"
  83   1.0000       0.050252         1.3674   36-A"
  84   1.0000       0.055455         1.5090   37-A"
  85   1.0000       0.061484         1.6731   49-A'
  86   1.0000       0.088723         2.4143   50-A'
  87   0.0000       0.136095         3.7033   38-A"
  88   0.0000       0.180171         4.9027   51-A'
  89   0.0000       0.181901         4.9498   52-A'
  90   0.0000       0.183488         4.9929   53-A'
  91   0.0000       0.197419         5.3720   54-A'

MULLIKEN ATOMIC CHARGES AND SPIN POPULATIONS
--------------------------------------------
   0 Cu:    0.141660    0.374666
   1 S :   -0.405909    0.163654
   2 C :    0.058538   -0.007945
   3 S :   -0.420233    0.163708
   4 C :    0.031312   -0.007710
   5 S :   -0.405909    0.163654
   6 C :    0.058538   -0.007945
   7 S :   -0.420233    0.163708
   8 C :    0.031312   -0.007710
   9 C :   -0.098082   -0.001470
  10 C :   -0.098082   -0.001470
  11 C :   -0.131649   -0.000832
  12 H :    0.054505    0.001849
  13 C :   -0.131649   -0.000832
  14 H :    0.054505    0.001849
  15 H :    0.030783    0.001112
  16 H :    0.030783    0.001112
  17 C :   -0.117116   -0.001520
  18 C :   -0.117116   -0.001520
  19 C :   -0.107255   -0.000750
  20 H :    0.012156    0.001381
  21 C :   -0.107255   -0.000750
  22 H :    0.012156    0.001381
  23 H :    0.022121    0.001191
  24 H :    0.022121    0.001191
Sum of atomic charges         :   -2.0000000

LOEWDIN ATOMIC CHARGES AND SPIN POPULATIONS
-------------------------------------------
   0 Cu:   -0.893351    0.441551
   1 S :    0.009781    0.124960
   2 C :   -0.047256    0.005078
   3 S :    0.010008    0.124629
   4 C :   -0.039845    0.005155
   5 S :    0.009781    0.124960
   6 C :   -0.047256    0.005078
   7 S :    0.010008    0.124629
   8 C :   -0.039845    0.005155
   9 C :    0.299254    0.003849
  10 C :    0.299254    0.003849
  11 C :    0.307428   -0.000106
  12 H :   -0.435460    0.006178
  13 C :    0.307428   -0.000106
  14 H :   -0.435460    0.006178
  15 H :   -0.415959    0.000213
  16 H :   -0.415959    0.000213
  17 C :    0.265433    0.003438
  18 C :    0.265433    0.003438
  19 C :    0.284822   -0.000098
  20 H :   -0.385139    0.005682
  21 C :    0.284822   -0.000098
  22 H :   -0.385139    0.005682
  23 H :   -0.406392    0.000246
  24 H :   -0.406392    0.000246

  Mayer bond orders larger than 0.100000
B(  0-Cu,  1-S ) :   0.6988 B(  0-Cu,  3-S ) :   0.7022 B(  0-Cu,  5-S ) :   0.6988
B(  0-Cu,  7-S ) :   0.7022 B(  1-S ,  2-C ) :   1.1901 B(  2-C ,  6-C ) :   1.2266
B(  2-C , 17-C ) :   1.3245 B(  3-S ,  4-C ) :   1.1851 B(  4-C ,  8-C ) :   1.2407
B(  4-C , 10-C ) :   1.3198 B(  5-S ,  6-C ) :   1.1901 B(  6-C , 18-C ) :   1.3245
B(  7-S ,  8-C ) :   1.1851 B(  8-C ,  9-C ) :   1.3198 B(  9-C , 13-C ) :   1.3573
B(  9-C , 14-H ) :   0.9780 B( 10-C , 11-C ) :   1.3573 B( 10-C , 12-H ) :   0.9780
B( 11-C , 13-C ) :   1.3427 B( 11-C , 15-H ) :   0.9881 B( 13-C , 16-H ) :   0.9881
B( 17-C , 19-C ) :   1.3333 B( 17-C , 20-H ) :   1.0013 B( 18-C , 21-C ) :   1.3333
B( 18-C , 22-H ) :   1.0013 B( 19-C , 21-C ) :   1.3563 B( 19-C , 23-H ) :   0.9900
B( 21-C , 24-H ) :   0.9900

FINAL SINGLE POINT ENERGY     -3686.890751651671

DIPOLE MOMENT
-------------
                                X             Y             Z
Electronic contribution:     -0.35157      -0.29804      -0.00000
Nuclear contribution   :      0.46424       0.12166       0.00000
                        -----------------------------------------
Total Dipole Moment    :      0.11268      -0.17639      -0.00000
                        -----------------------------------------
Magnitude (a.u.)       :      0.20930
Magnitude (Debye)      :      0.53201

Rotational constants in cm-1:     0.033385     0.004803     0.004200
Rotational constants in MHz :  1000.851152   143.994709   125.919615

                             ****ORCA TERMINATED NORMALLY****
TOTAL RUN TIME: 0 days 5 hours 47 minutes 48 seconds 237 msec
