                         Program Version 5.0.4 -  RELEASE  -
|  1> ! RIJCOSX nofrozencore ReducedPop printbasis
|  2> ! M06L ano-rcc-dzp autoaux
|  3>
|  4> %maxcore 5000
|  5> %basis
|  6> PCDTrimBas overlap
|  7> PCDTrimAuxJ Coulomb
|  8> PCDTrimAuxJK Coulomb
|  9> PCDTrimAuxC Coulomb
| 10> PCDThresh -1
| 11> end
| 12>
| 13> %basis
| 14> newgto Cu "ano-rcc-tzp" end
| 15> newgto S "ano-rcc-tzp" end
| 16> end
| 17>
| 18> %pal
| 19> nprocs 12
| 20> end
| 21>
| 22> % sym SymThresh 1e-2 end
| 23> * xyz -2 2
| 24> Cu -7.572956544819476e-05 0.0004237165428506753 -0.00014636025495912277
| 25> S -1.6543405985163675 1.2131972499927606 -1.085828627809891
| 26> C -1.0561938633526697 2.7368600711417472 -1.2083806777899717
| 27> S -1.2728405556057427 -1.9304837601978233 -0.08359500837812242
| 28> C -0.20331128575498444 -3.209357628851312 0.748219713631991
| 29> S 1.2562171298863187 1.950366446178513 0.07066488449843497
| 30> C 0.32309786531884715 3.0879074916818063 -0.6607754676755043
| 31> S 1.6651784971096226 -1.1858049352205688 1.0836645673894119
| 32> C 0.9736544751120285 -2.91572334033482 1.2170513919720398
| 33> C 1.7422060642835446 -3.8281630212754716 1.8130659246328305
| 34> C -0.6972718641496444 -4.448789456329964 0.8444803611414726
| 35> C 0.027340910003982935 -5.434270120092507 1.4392893386456116
| 36> H -1.7027238811917815 -4.455518588016953 0.379884080517491
| 37> C 1.2970490960541696 -5.1105052864543765 1.9432282177543967
| 38> H 2.6863760322694143 -3.3347245781747 2.121466301825934
| 39> H -0.3554490218399643 -6.444062269413198 1.5268295707403723
| 40> H 1.8995420358673063 -5.872691489133265 2.4227744763637844
| 41> C -1.7913708682854843 3.8293315061539395 -1.8361769829283654
| 42> C 0.7447968261774605 4.473488973584954 -0.8289207999771881
| 43> C -1.2933853721696218 5.148331036648253 -1.9514588956467855
| 44> H -2.8007942276760778 3.757086514315329 -2.285416046078319
| 45> C -0.04135154440418519 5.464149877398709 -1.4536319979885057
| 46> H 1.7085106851343785 4.907812161091328 -0.4959363312873282
| 47> H -1.9101279258150072 5.903224299912137 -2.435700062809155
| 48> H 0.36238453313715124 6.472008250977635 -1.5309490399351622
| 49> *
| 50>
| 51> % eprnmr
| 52> gtensor true
| 53> Nuclei = all H {aiso,adip,aorb,fgrad,rho}
| 54> Nuclei = all Cu {aiso,adip,aorb,fgrad,rho}
| 55> end
| 56>
| 57>                          ****END OF INPUT****

CARTESIAN COORDINATES (ANGSTROEM)
---------------------------------
  Cu    -0.000107    0.000442    0.000000
  S     -1.888128    1.350069    0.000000
  C     -1.313988    2.887831    0.000000
  S     -1.294312   -1.917977    0.000000
  C     -0.046286   -3.301364    0.000000
  S      1.274914    1.939484    0.000000
  C      0.184860    3.168914    0.000000
  S      1.898543   -1.322429    0.000000
  C      1.233026   -3.067623    0.000000
  C      2.129481   -4.054952    0.000000
  C     -0.521463   -4.551828    0.000000
  C      0.330666   -5.611974    0.000000
  H     -1.627848   -4.499482    0.000000
  C      1.710398   -5.352595    0.000000
  H      3.141489   -3.601204    0.000000
  H     -0.034840   -6.631914    0.000000
  H      2.415752   -6.175010    0.000000
  C     -2.183663    4.059058    0.000000
  C      0.572411    4.574525    0.000000
  C     -1.708457    5.391431    0.000000
  H     -3.290796    4.043999    0.000000
  C     -0.347741    5.643648    0.000000
  H      1.609202    4.966090    0.000000
  H     -2.429093    6.207156    0.000000
  H      0.040930    6.660356    0.000000

 Total Charge           Charge          ....   -2
 Multiplicity           Mult            ....    2
 Number of Electrons    NEL             ....  175
 Basis Dimension        Dim             ....  475

ORBITAL ENERGIES
----------------
                 SPIN UP ORBITALS
  NO   OCC          E(Eh)            E(eV)    Irrep
   0   1.0000    -318.182549     -8658.1873    1-A'
   1   1.0000     -88.017186     -2395.0694    2-A'
   2   1.0000     -88.016569     -2395.0526    3-A'
   3   1.0000     -88.012322     -2394.9370    4-A'
   4   1.0000     -88.012273     -2394.9357    5-A'
   5   1.0000     -38.027749     -1034.7877    6-A'
   6   1.0000     -33.530912      -912.4225    7-A'
   7   1.0000     -33.530099      -912.4004    8-A'
   8   1.0000     -33.516192      -912.0220    1-A"
   9   1.0000      -9.836636      -267.6685    9-A'
  10   1.0000      -9.836191      -267.6564   10-A'
  11   1.0000      -9.836146      -267.6551   11-A'
  12   1.0000      -9.836018      -267.6517   12-A'
  13   1.0000      -9.823821      -267.3198   13-A'
  14   1.0000      -9.822783      -267.2915   14-A'
  15   1.0000      -9.820890      -267.2400   15-A'
  16   1.0000      -9.820591      -267.2319   16-A'
  17   1.0000      -9.814843      -267.0755   17-A'
  18   1.0000      -9.814384      -267.0630   18-A'
  19   1.0000      -9.812225      -267.0042   19-A'
  20   1.0000      -9.811585      -266.9868   20-A'
  21   1.0000      -7.584013      -206.3715   21-A'
  22   1.0000      -7.583516      -206.3580   22-A'
  23   1.0000      -7.583484      -206.3571   23-A'
  24   1.0000      -7.583399      -206.3548   24-A'
  25   1.0000      -5.507931      -149.8784   25-A'
  26   1.0000      -5.507302      -149.8613   26-A'
  27   1.0000      -5.505974      -149.8252   27-A'
  28   1.0000      -5.505956      -149.8247   28-A'
  29   1.0000      -5.502202      -149.7225   29-A'
  30   1.0000      -5.501621      -149.7067   30-A'
  31   1.0000      -5.501144      -149.6937   31-A'
  32   1.0000      -5.501118      -149.6930   32-A'
  33   1.0000      -5.499943      -149.6611    2-A"
  34   1.0000      -5.499920      -149.6604    3-A"
  35   1.0000      -5.499624      -149.6524    4-A"
  36   1.0000      -5.499001      -149.6354    5-A"
  37   1.0000      -4.025220      -109.5318   33-A'
  38   1.0000      -2.546684       -69.2988   34-A'
  39   1.0000      -2.545202       -69.2585   35-A'
  40   1.0000      -2.517560       -68.5063    6-A"
  41   1.0000      -0.623209       -16.9584   36-A'
  42   1.0000      -0.567312       -15.4374   37-A'
  43   1.0000      -0.511332       -13.9141   38-A'
  44   1.0000      -0.507634       -13.8134   39-A'
  45   1.0000      -0.504601       -13.7309   40-A'
  46   1.0000      -0.481991       -13.1156   41-A'
  47   1.0000      -0.419099       -11.4043   42-A'
  48   1.0000      -0.396528       -10.7901   43-A'
  49   1.0000      -0.388015       -10.5584   44-A'
  50   1.0000      -0.375172       -10.2089   45-A'
  51   1.0000      -0.343759        -9.3541   46-A'
  52   1.0000      -0.315749        -8.5920   47-A'
  53   1.0000      -0.300002        -8.1635   48-A'
  54   1.0000      -0.281871        -7.6701   49-A'
  55   1.0000      -0.247957        -6.7472   50-A'
  56   1.0000      -0.215077        -5.8525   51-A'
  57   1.0000      -0.208058        -5.6615   52-A'
  58   1.0000      -0.176065        -4.7910   53-A'
  59   1.0000      -0.172208        -4.6860   54-A'
  60   1.0000      -0.170587        -4.6419   55-A'
  61   1.0000      -0.163286        -4.4432   56-A'
  62   1.0000      -0.141134        -3.8405    7-A"
  63   1.0000      -0.134053        -3.6478   57-A'
  64   1.0000      -0.126965        -3.4549   58-A'
  65   1.0000      -0.112683        -3.0663   59-A'
  66   1.0000      -0.101643        -2.7658    8-A"
  67   1.0000      -0.080106        -2.1798   60-A'
  68   1.0000      -0.072086        -1.9615   61-A'
  69   1.0000      -0.060923        -1.6578   62-A'
  70   1.0000      -0.059645        -1.6230   63-A'
  71   1.0000      -0.041393        -1.1264    9-A"
  72   1.0000      -0.037629        -1.0239   10-A"
  73   1.0000      -0.031408        -0.8547   11-A"
  74   1.0000      -0.029280        -0.7968   64-A'
  75   1.0000      -0.027872        -0.7584   65-A'
  76   1.0000      -0.023362        -0.6357   12-A"
  77   1.0000      -0.002639        -0.0718   66-A'
  78   1.0000      -0.002374        -0.0646   13-A"
  79   1.0000      -0.000445        -0.0121   14-A"
  80   1.0000       0.014701         0.4000   67-A'
  81   1.0000       0.024572         0.6687   68-A'
  82   1.0000       0.033926         0.9232   69-A'
  83   1.0000       0.051545         1.4026   15-A"
  84   1.0000       0.053872         1.4659   16-A"
  85   1.0000       0.057635         1.5683   17-A"
  86   1.0000       0.092882         2.5274   18-A"
  87   1.0000       0.103918         2.8278   70-A'
  88   0.0000       0.175395         4.7727   71-A'
  89   0.0000       0.187101         5.0913   72-A'
  90   0.0000       0.192684         5.2432   73-A'
  91   0.0000       0.198847         5.4109   19-A"
  92   0.0000       0.201118         5.4727   74-A'

                 SPIN DOWN ORBITALS
  NO   OCC          E(Eh)            E(eV)    Irrep
   0   1.0000    -318.182375     -8658.1826    1-A'
   1   1.0000     -88.016057     -2395.0387    2-A'
   2   1.0000     -88.015434     -2395.0217    3-A'
   3   1.0000     -88.011326     -2394.9099    4-A'
   4   1.0000     -88.011280     -2394.9087    5-A'
   5   1.0000     -38.011905     -1034.3565    6-A'
   6   1.0000     -33.515773      -912.0106    7-A'
   7   1.0000     -33.514992      -911.9893    8-A'
   8   1.0000     -33.511876      -911.9045    1-A"
   9   1.0000      -9.836617      -267.6680    9-A'
  10   1.0000      -9.836193      -267.6564   10-A'
  11   1.0000      -9.836172      -267.6558   11-A'
  12   1.0000      -9.836064      -267.6529   12-A'
  13   1.0000      -9.823979      -267.3241   13-A'
  14   1.0000      -9.822937      -267.2957   14-A'
  15   1.0000      -9.820816      -267.2380   15-A'
  16   1.0000      -9.820516      -267.2298   16-A'
  17   1.0000      -9.814780      -267.0737   17-A'
  18   1.0000      -9.814321      -267.0612   18-A'
  19   1.0000      -9.812193      -267.0034   19-A'
  20   1.0000      -9.811553      -266.9859   20-A'
  21   1.0000      -7.583236      -206.3503   21-A'
  22   1.0000      -7.582845      -206.3397   22-A'
  23   1.0000      -7.582811      -206.3388   23-A'
  24   1.0000      -7.582618      -206.3335   24-A'
  25   1.0000      -5.506984      -149.8527   25-A'
  26   1.0000      -5.506350      -149.8354   26-A'
  27   1.0000      -5.505065      -149.8004   27-A'
  28   1.0000      -5.505042      -149.7998   28-A'
  29   1.0000      -5.499773      -149.6564   29-A'
  30   1.0000      -5.499185      -149.6404    2-A"
  31   1.0000      -5.499177      -149.6402   30-A'
  32   1.0000      -5.499160      -149.6398    3-A"
  33   1.0000      -5.499138      -149.6392   31-A'
  34   1.0000      -5.499109      -149.6384   32-A'
  35   1.0000      -5.498772      -149.6292    4-A"
  36   1.0000      -5.498145      -149.6121    5-A"
  37   1.0000      -3.991573      -108.6162   33-A'
  38   1.0000      -2.505859       -68.1879    6-A"
  39   1.0000      -2.504730       -68.1572   34-A'
  40   1.0000      -2.503226       -68.1162   35-A'
  41   1.0000      -0.623134       -16.9563   36-A'
  42   1.0000      -0.566508       -15.4155   37-A'
  43   1.0000      -0.510754       -13.8983   38-A'
  44   1.0000      -0.507093       -13.7987   39-A'
  45   1.0000      -0.502854       -13.6833   40-A'
  46   1.0000      -0.479866       -13.0578   41-A'
  47   1.0000      -0.416302       -11.3281   42-A'
  48   1.0000      -0.392508       -10.6807   43-A'
  49   1.0000      -0.384066       -10.4510   44-A'
  50   1.0000      -0.372806       -10.1446   45-A'
  51   1.0000      -0.342198        -9.3117   46-A'
  52   1.0000      -0.312719        -8.5095   47-A'
  53   1.0000      -0.298722        -8.1286   48-A'
  54   1.0000      -0.280104        -7.6220   49-A'
  55   1.0000      -0.247168        -6.7258   50-A'
  56   1.0000      -0.214451        -5.8355   51-A'
  57   1.0000      -0.207720        -5.6523   52-A'
  58   1.0000      -0.174294        -4.7428   53-A'
  59   1.0000      -0.171367        -4.6631   54-A'
  60   1.0000      -0.170093        -4.6285   55-A'
  61   1.0000      -0.162260        -4.4153   56-A'
  62   1.0000      -0.141153        -3.8410    7-A"
  63   1.0000      -0.132993        -3.6189   57-A'
  64   1.0000      -0.125538        -3.4161   58-A'
  65   1.0000      -0.111492        -3.0338   59-A'
  66   1.0000      -0.101101        -2.7511    8-A"
  67   1.0000      -0.078800        -2.1443   60-A'
  68   1.0000      -0.070031        -1.9056   61-A'
  69   1.0000      -0.058183        -1.5832   62-A'
  70   1.0000      -0.042815        -1.1651   63-A'
  71   1.0000      -0.040424        -1.1000    9-A"
  72   1.0000      -0.036104        -0.9824   10-A"
  73   1.0000      -0.030227        -0.8225   11-A"
  74   1.0000      -0.022349        -0.6082   64-A'
  75   1.0000      -0.020249        -0.5510   12-A"
  76   1.0000      -0.002993        -0.0815   65-A'
  77   1.0000       0.007422         0.2020   13-A"
  78   1.0000       0.007840         0.2133   66-A'
  79   1.0000       0.011780         0.3206   14-A"
  80   1.0000       0.027243         0.7413   67-A'
  81   1.0000       0.034558         0.9404   68-A'
  82   1.0000       0.042175         1.1476   69-A'
  83   1.0000       0.053892         1.4665   15-A"
  84   1.0000       0.059525         1.6198   16-A"
  85   1.0000       0.060651         1.6504   17-A"
  86   1.0000       0.096226         2.6184   18-A"
  87   0.0000       0.136816         3.7230   70-A'
  88   0.0000       0.176510         4.8031   71-A'
  89   0.0000       0.188334         5.1248   72-A'
  90   0.0000       0.194642         5.2965   73-A'
  91   0.0000       0.198897         5.4123   19-A"

MULLIKEN ATOMIC CHARGES AND SPIN POPULATIONS
--------------------------------------------
   0 Cu:    0.140521    0.374970
   1 S :   -0.353374    0.147936
   2 C :   -0.021864   -0.002992
   3 S :   -0.480441    0.175115
   4 C :    0.093694   -0.011782
   5 S :   -0.355224    0.148331
   6 C :   -0.022878   -0.002907
   7 S :   -0.480452    0.176215
   8 C :    0.100730   -0.011917
   9 C :   -0.075177    0.000830
  10 C :   -0.069125    0.000650
  11 C :   -0.169656   -0.001097
  12 H :    0.065186    0.002120
  13 C :   -0.169758   -0.001130
  14 H :    0.064149    0.002138
  15 H :    0.033899    0.000731
  16 H :    0.035469    0.000708
  17 C :   -0.129000   -0.000646
  18 C :   -0.126971   -0.000637
  19 C :   -0.112902   -0.000470
  20 H :    0.042561    0.000687
  21 C :   -0.106449   -0.000450
  22 H :    0.041409    0.000669
  23 H :    0.027769    0.001453
  24 H :    0.027884    0.001474
Sum of atomic charges         :   -2.0000000

LOEWDIN ATOMIC CHARGES AND SPIN POPULATIONS
-------------------------------------------
   0 Cu:   -0.892128    0.441930
   1 S :    0.009788    0.112821
   2 C :   -0.060918    0.011008
   3 S :    0.027782    0.132258
   4 C :   -0.027576   -0.000720
   5 S :    0.009282    0.113233
   6 C :   -0.059911    0.011046
   7 S :    0.026845    0.132964
   8 C :   -0.027794   -0.000863
   9 C :    0.290681    0.004333
  10 C :    0.290646    0.004250
  11 C :    0.323797   -0.000165
  12 H :   -0.453873    0.011084
  13 C :    0.324622   -0.000178
  14 H :   -0.453409    0.011305
  15 H :   -0.411789   -0.000009
  16 H :   -0.413881   -0.000027
  17 C :    0.310410    0.004076
  18 C :    0.308968    0.004071
  19 C :    0.298398    0.000164
  20 H :   -0.434460    0.003218
  21 C :    0.296883    0.000181
  22 H :   -0.432927    0.003187
  23 H :   -0.425075    0.000413
  24 H :   -0.424362    0.000420

  Mayer bond orders larger than 0.100000
B(  0-Cu,  1-S ) :   0.6885 B(  0-Cu,  3-S ) :   0.7129 B(  0-Cu,  5-S ) :   0.6893
B(  0-Cu,  7-S ) :   0.7143 B(  1-S ,  2-C ) :   1.2798 B(  2-C ,  6-C ) :   1.1848
B(  2-C , 17-C ) :   1.3145 B(  3-S ,  4-C ) :   1.0921 B(  4-C ,  8-C ) :   1.3031
B(  4-C , 10-C ) :   1.3075 B(  5-S ,  6-C ) :   1.2782 B(  6-C , 18-C ) :   1.3149
B(  7-S ,  8-C ) :   1.0877 B(  8-C ,  9-C ) :   1.3087 B(  9-C , 13-C ) :   1.3850
B(  9-C , 14-H ) :   0.9577 B( 10-C , 11-C ) :   1.3853 B( 10-C , 12-H ) :   0.9568
B( 11-C , 13-C ) :   1.3388 B( 11-C , 15-H ) :   0.9905 B( 13-C , 16-H ) :   0.9896
B( 17-C , 19-C ) :   1.3418 B( 17-C , 20-H ) :   0.9858 B( 18-C , 21-C ) :   1.3409
B( 18-C , 22-H ) :   0.9863 B( 19-C , 21-C ) :   1.3431 B( 19-C , 23-H ) :   0.9894
B( 21-C , 24-H ) :   0.9887

FINAL SINGLE POINT ENERGY     -3686.861987867374

DIPOLE MOMENT
-------------
                                X             Y             Z
Electronic contribution:      0.35022      -1.94835      -0.00000
Nuclear contribution   :     -0.16356       0.90631       0.00000
                        -----------------------------------------
Total Dipole Moment    :      0.18666      -1.04205      -0.00000
                        -----------------------------------------
Magnitude (a.u.)       :      1.05863
Magnitude (Debye)      :      2.69083

Rotational constants in cm-1:     0.033440     0.004804     0.004200
Rotational constants in MHz :  1002.502145   144.005631   125.917989

                             ****ORCA TERMINATED NORMALLY****
TOTAL RUN TIME: 0 days 7 hours 18 minutes 9 seconds 50 msec
