                         Program Version 5.0.4 -  RELEASE  -
|  1> ! RIJCOSX nofrozencore ReducedPop printbasis
|  2> ! M06L ano-rcc-dzp autoaux
|  3>
|  4> %maxcore 5000
|  5> %basis
|  6> PCDTrimBas overlap
|  7> PCDTrimAuxJ Coulomb
|  8> PCDTrimAuxJK Coulomb
|  9> PCDTrimAuxC Coulomb
| 10> PCDThresh -1
| 11> end
| 12>
| 13> %basis
| 14> newgto Cu "ano-rcc-tzp" end
| 15> newgto S "ano-rcc-tzp" end
| 16> end
| 17>
| 18> %pal
| 19> nprocs 12
| 20> end
| 21>
| 22> % sym SymThresh 1e-2 end
| 23> * xyz -2 2
| 24> Cu 2.125963544774793e-05 1.020575899124913e-05 3.29525474590569e-05
| 25> S 0.6189720249406755 -0.3323840155381806 2.209535625219823
| 26> C 1.762653266765162 1.024668370049891 2.3776500070124706
| 27> S -1.4256828694243968 -1.8269357486872853 0.05905610223548081
| 28> C -2.066806089026586 -1.807184436257988 -1.5850959705565228
| 29> S 1.4257712234053634 1.8273686785502272 -0.0596946492641486
| 30> C 2.0341387654956073 1.7515205974573393 1.6138583936689406
| 31> S -0.6192644945239215 0.33179747999332854 -2.2091030080709477
| 32> C -1.7621002993564403 -0.9930050104868072 -2.439143750541579
| 33> C -2.38513686974817 -1.0674361038334321 -3.8509892808609325
| 34> C -3.0788274005506278 -2.9271212145055663 -1.8944957527762172
| 35> C -3.616853556812363 -3.009361184397862 -3.078026883193722
| 36> H -3.3798278619353086 -3.6740382768994717 -1.1647472368605847
| 37> C -3.2403562803209636 -2.0037574838560546 -4.132494125730531
| 38> H -2.141574354269395 -0.3624933327623828 -4.641172326476517
| 39> H -4.34257912432353 -3.762741354146361 -3.3986584693098103
| 40> H -3.7422758447723505 -2.151946314967506 -5.094676202231518
| 41> C 2.400869849087853 1.0738888483054354 3.877559743763866
| 42> C 3.1001891857348793 2.947823125863989 1.9068604574168433
| 43> C 3.224436872594277 1.9757518957494302 4.148257219254126
| 44> H 2.1886814883143644 0.3917279058525129 4.7010411878596035
| 45> C 3.6171024371638274 3.0270201569247757 3.043582222288665
| 46> H 3.4345560440841876 3.7193267303553554 1.2118069902731692
| 47> H 3.762854008196827 2.17855042464613 5.093358507925811
| 48> H 4.352685834834797 3.7515517423410496 3.446179332520487
| 49> *
| 50>
| 51> % eprnmr
| 52> gtensor true
| 53> Nuclei = all H {aiso,adip,aorb,fgrad,rho}
| 54> Nuclei = all Cu {aiso,adip,aorb,fgrad,rho}
| 55> end
| 56>
| 57>                          ****END OF INPUT****

CARTESIAN COORDINATES (ANGSTROEM)
---------------------------------
  Cu     0.000000    0.000000    0.000039
  S      0.000000   -1.617472    1.661157
  C      0.000000   -0.544379    3.084437
  S      0.000000   -1.616708   -1.661321
  C      0.000000   -0.609330   -3.110309
  S      0.000000    1.617472    1.661157
  C      0.000000    0.544379    3.084437
  S      0.000000    1.616708   -1.661321
  C      0.000000    0.609330   -3.110309
  C      0.000000    1.393511   -4.439087
  C      0.000000   -1.393511   -4.439087
  C      0.000000   -0.752477   -5.571003
  H      0.000000   -2.479170   -4.485760
  C      0.000000    0.752477   -5.571003
  H      0.000000    2.479170   -4.485760
  H      0.000000   -1.207424   -6.566679
  H      0.000000    1.207424   -6.566679
  C      0.000000   -1.403952    4.469210
  C      0.000000    1.403952    4.469210
  C      0.000000   -0.787346    5.557809
  H      0.000000   -2.489972    4.568461
  C      0.000000    0.787346    5.557809
  H      0.000000    2.489972    4.568461
  H      0.000000   -1.176373    6.594539
  H      0.000000    1.176373    6.594539

 Total Charge           Charge          ....   -2
 Multiplicity           Mult            ....    2
 Number of Electrons    NEL             ....  175
 Basis Dimension        Dim             ....  475

ORBITAL ENERGIES
----------------
                 SPIN UP ORBITALS
  NO   OCC          E(Eh)            E(eV)    Irrep
   0   1.0000    -318.166512     -8657.7509    1-A1
   1   1.0000     -88.001507     -2394.6428    1-B2
   2   1.0000     -88.001495     -2394.6424    2-A1
   3   1.0000     -88.000936     -2394.6272    2-B2
   4   1.0000     -88.000921     -2394.6268    3-A1
   5   1.0000     -38.011752     -1034.3524    4-A1
   6   1.0000     -33.514712      -911.9817    3-B2
   7   1.0000     -33.514202      -911.9678    5-A1
   8   1.0000     -33.500272      -911.5887    1-B1
   9   1.0000      -9.832259      -267.5494    6-A1
  10   1.0000      -9.832241      -267.5489    4-B2
  11   1.0000      -9.830671      -267.5061    7-A1
  12   1.0000      -9.830616      -267.5047    5-B2
  13   1.0000      -9.826336      -267.3882    8-A1
  14   1.0000      -9.826302      -267.3873    6-B2
  15   1.0000      -9.825267      -267.3591    9-A1
  16   1.0000      -9.825151      -267.3559    7-B2
  17   1.0000      -9.814323      -267.0613   10-A1
  18   1.0000      -9.812329      -267.0071    8-B2
  19   1.0000      -9.805082      -266.8098   11-A1
  20   1.0000      -9.798993      -266.6442    9-B2
  21   1.0000      -7.570070      -205.9921   10-B2
  22   1.0000      -7.570059      -205.9918   12-A1
  23   1.0000      -7.569296      -205.9710   11-B2
  24   1.0000      -7.569285      -205.9707   13-A1
  25   1.0000      -5.493624      -149.4891   12-B2
  26   1.0000      -5.493623      -149.4891   14-A1
  27   1.0000      -5.493189      -149.4773   13-B2
  28   1.0000      -5.493189      -149.4773   15-A1
  29   1.0000      -5.487981      -149.3356   14-B2
  30   1.0000      -5.487981      -149.3356   16-A1
  31   1.0000      -5.487308      -149.3172   15-B2
  32   1.0000      -5.487308      -149.3172   17-A1
  33   1.0000      -5.485825      -149.2769    1-A2
  34   1.0000      -5.485824      -149.2769    2-B1
  35   1.0000      -5.484694      -149.2461    2-A2
  36   1.0000      -5.484694      -149.2461    3-B1
  37   1.0000      -4.009366      -109.1004   18-A1
  38   1.0000      -2.530388       -68.8554   16-B2
  39   1.0000      -2.529641       -68.8350   19-A1
  40   1.0000      -2.501900       -68.0802    4-B1
  41   1.0000      -0.598532       -16.2869   20-A1
  42   1.0000      -0.591170       -16.0865   21-A1
  43   1.0000      -0.528739       -14.3877   22-A1
  44   1.0000      -0.513068       -13.9613   23-A1
  45   1.0000      -0.501527       -13.6473   17-B2
  46   1.0000      -0.488967       -13.3055   18-B2
  47   1.0000      -0.400955       -10.9105   19-B2
  48   1.0000      -0.394835       -10.7440   20-B2
  49   1.0000      -0.373960       -10.1760   24-A1
  50   1.0000      -0.365543        -9.9469   25-A1
  51   1.0000      -0.344861        -9.3841   26-A1
  52   1.0000      -0.338012        -9.1978   27-A1
  53   1.0000      -0.274528        -7.4703   21-B2
  54   1.0000      -0.263915        -7.1815   22-B2
  55   1.0000      -0.246072        -6.6960   28-A1
  56   1.0000      -0.236246        -6.4286   29-A1
  57   1.0000      -0.193096        -5.2544   30-A1
  58   1.0000      -0.189580        -5.1587   31-A1
  59   1.0000      -0.179010        -4.8711   23-B2
  60   1.0000      -0.174511        -4.7487   24-B2
  61   1.0000      -0.166033        -4.5180   25-B2
  62   1.0000      -0.158338        -4.3086   26-B2
  63   1.0000      -0.128320        -3.4918    5-B1
  64   1.0000      -0.122362        -3.3296   32-A1
  65   1.0000      -0.118532        -3.2254    6-B1
  66   1.0000      -0.096494        -2.6257   33-A1
  67   1.0000      -0.078830        -2.1451   34-A1
  68   1.0000      -0.068690        -1.8691   35-A1
  69   1.0000      -0.058978        -1.6049    7-B1
  70   1.0000      -0.043592        -1.1862    8-B1
  71   1.0000      -0.043307        -1.1785   27-B2
  72   1.0000      -0.034807        -0.9471   28-B2
  73   1.0000      -0.025683        -0.6989    3-A2
  74   1.0000      -0.020386        -0.5547   36-A1
  75   1.0000      -0.015878        -0.4321    4-A2
  76   1.0000      -0.009437        -0.2568   29-B2
  77   1.0000       0.003690         0.1004    5-A2
  78   1.0000       0.010652         0.2898   37-A1
  79   1.0000       0.011429         0.3110    9-B1
  80   1.0000       0.030371         0.8264   38-A1
  81   1.0000       0.030579         0.8321   39-A1
  82   1.0000       0.045598         1.2408   30-B2
  83   1.0000       0.053514         1.4562    6-A2
  84   1.0000       0.058579         1.5940    7-A2
  85   1.0000       0.067661         1.8412   10-B1
  86   1.0000       0.096879         2.6362   11-B1
  87   1.0000       0.121158         3.2969   31-B2
  88   0.0000       0.172584         4.6962   40-A1
  89   0.0000       0.178371         4.8537   41-A1
  90   0.0000       0.190620         5.1870   12-B1
  91   0.0000       0.191618         5.2142   32-B2
  92   0.0000       0.193181         5.2567   13-B1

                 SPIN DOWN ORBITALS
  NO   OCC          E(Eh)            E(eV)    Irrep
   0   1.0000    -318.166338     -8657.7462    1-A1
   1   1.0000     -88.000443     -2394.6138    1-B2
   2   1.0000     -88.000431     -2394.6135    2-A1
   3   1.0000     -87.999854     -2394.5978    2-B2
   4   1.0000     -87.999838     -2394.5973    3-A1
   5   1.0000     -37.995960     -1033.9226    4-A1
   6   1.0000     -33.499627      -911.5712    3-B2
   7   1.0000     -33.499140      -911.5579    5-A1
   8   1.0000     -33.495972      -911.4717    1-B1
   9   1.0000      -9.832173      -267.5470    6-A1
  10   1.0000      -9.832152      -267.5465    4-B2
  11   1.0000      -9.830620      -267.5048    7-A1
  12   1.0000      -9.830568      -267.5034    5-B2
  13   1.0000      -9.826262      -267.3862    8-A1
  14   1.0000      -9.826224      -267.3851    6-B2
  15   1.0000      -9.825227      -267.3580    9-A1
  16   1.0000      -9.825115      -267.3550    7-B2
  17   1.0000      -9.814462      -267.0651   10-A1
  18   1.0000      -9.812469      -267.0109    8-B2
  19   1.0000      -9.805231      -266.8139   11-A1
  20   1.0000      -9.799145      -266.6483    9-B2
  21   1.0000      -7.569341      -205.9722   10-B2
  22   1.0000      -7.569330      -205.9720   12-A1
  23   1.0000      -7.568555      -205.9509   11-B2
  24   1.0000      -7.568545      -205.9506   13-A1
  25   1.0000      -5.492698      -149.4639   12-B2
  26   1.0000      -5.492697      -149.4639   14-A1
  27   1.0000      -5.492262      -149.4520   13-B2
  28   1.0000      -5.492261      -149.4520   15-A1
  29   1.0000      -5.485739      -149.2745   14-B2
  30   1.0000      -5.485739      -149.2745   16-A1
  31   1.0000      -5.485022      -149.2551    1-A2
  32   1.0000      -5.485022      -149.2550    2-B1
  33   1.0000      -5.484997      -149.2544   15-B2
  34   1.0000      -5.484997      -149.2543   17-A1
  35   1.0000      -5.483891      -149.2243    2-A2
  36   1.0000      -5.483891      -149.2243    3-B1
  37   1.0000      -3.975873      -108.1890   18-A1
  38   1.0000      -2.490267       -67.7636    4-B1
  39   1.0000      -2.488598       -67.7182   16-B2
  40   1.0000      -2.487867       -67.6983   19-A1
  41   1.0000      -0.598293       -16.2804   20-A1
  42   1.0000      -0.590894       -16.0790   21-A1
  43   1.0000      -0.528267       -14.3749   22-A1
  44   1.0000      -0.512320       -13.9409   23-A1
  45   1.0000      -0.501190       -13.6381   17-B2
  46   1.0000      -0.488491       -13.2925   18-B2
  47   1.0000      -0.396230       -10.7820   19-B2
  48   1.0000      -0.389575       -10.6009   20-B2
  49   1.0000      -0.369821       -10.0633   24-A1
  50   1.0000      -0.361732        -9.8432   25-A1
  51   1.0000      -0.344191        -9.3659   26-A1
  52   1.0000      -0.336625        -9.1600   27-A1
  53   1.0000      -0.272814        -7.4236   21-B2
  54   1.0000      -0.262385        -7.1399   22-B2
  55   1.0000      -0.245644        -6.6843   28-A1
  56   1.0000      -0.235752        -6.4151   29-A1
  57   1.0000      -0.192166        -5.2291   30-A1
  58   1.0000      -0.188673        -5.1340   31-A1
  59   1.0000      -0.178698        -4.8626   23-B2
  60   1.0000      -0.173862        -4.7310   24-B2
  61   1.0000      -0.164738        -4.4828   25-B2
  62   1.0000      -0.156990        -4.2719   26-B2
  63   1.0000      -0.128218        -3.4890    5-B1
  64   1.0000      -0.120587        -3.2813   32-A1
  65   1.0000      -0.118413        -3.2222    6-B1
  66   1.0000      -0.095277        -2.5926   33-A1
  67   1.0000      -0.078178        -2.1273   34-A1
  68   1.0000      -0.067600        -1.8395   35-A1
  69   1.0000      -0.058616        -1.5950    7-B1
  70   1.0000      -0.042869        -1.1665    8-B1
  71   1.0000      -0.036605        -0.9961   27-B2
  72   1.0000      -0.025363        -0.6902    3-A2
  73   1.0000      -0.015155        -0.4124    4-A2
  74   1.0000      -0.014377        -0.3912   28-B2
  75   1.0000      -0.014024        -0.3816   36-A1
  76   1.0000       0.008990         0.2446   29-B2
  77   1.0000       0.014114         0.3841    5-A2
  78   1.0000       0.020981         0.5709   37-A1
  79   1.0000       0.024211         0.6588    9-B1
  80   1.0000       0.037419         1.0182   38-A1
  81   1.0000       0.047546         1.2938   39-A1
  82   1.0000       0.053614         1.4589   30-B2
  83   1.0000       0.057012         1.5514    6-A2
  84   1.0000       0.065824         1.7912    7-A2
  85   1.0000       0.070028         1.9056   10-B1
  86   1.0000       0.101760         2.7690   11-B1
  87   0.0000       0.153851         4.1865   31-B2
  88   0.0000       0.173625         4.7246   40-A1
  89   0.0000       0.179564         4.8862   41-A1
  90   0.0000       0.190708         5.1894   12-B1
  91   0.0000       0.193247         5.2585   13-B1

MULLIKEN ATOMIC CHARGES AND SPIN POPULATIONS
--------------------------------------------
   0 Cu:    0.163887    0.372492
   1 S :   -0.499004    0.165924
   2 C :    0.070843   -0.010976
   3 S :   -0.469745    0.161974
   4 C :    0.039065   -0.010063
   5 S :   -0.499004    0.165924
   6 C :    0.070843   -0.010976
   7 S :   -0.469745    0.161974
   8 C :    0.039065   -0.010063
   9 C :   -0.108076    0.001014
  10 C :   -0.108076    0.001014
  11 C :   -0.089116   -0.001202
  12 H :    0.055386    0.002048
  13 C :   -0.089116   -0.001202
  14 H :    0.055386    0.002048
  15 H :    0.028741    0.000917
  16 H :    0.028741    0.000917
  17 C :   -0.137922    0.002531
  18 C :   -0.137922    0.002531
  19 C :   -0.041647   -0.001133
  20 H :    0.048561    0.001877
  21 C :   -0.041647   -0.001133
  22 H :    0.048561    0.001877
  23 H :    0.020970    0.000844
  24 H :    0.020970    0.000844
Sum of atomic charges         :   -2.0000000

LOEWDIN ATOMIC CHARGES AND SPIN POPULATIONS
-------------------------------------------
   0 Cu:   -0.906188    0.439625
   1 S :   -0.014931    0.127665
   2 C :   -0.116537    0.001506
   3 S :   -0.014322    0.124140
   4 C :   -0.082899    0.002863
   5 S :   -0.014931    0.127665
   6 C :   -0.116537    0.001506
   7 S :   -0.014322    0.124140
   8 C :   -0.082899    0.002863
   9 C :    0.348374    0.005750
  10 C :    0.348374    0.005750
  11 C :    0.311235   -0.000133
  12 H :   -0.434438    0.005687
  13 C :    0.311235   -0.000133
  14 H :   -0.434438    0.005687
  15 H :   -0.407037    0.000218
  16 H :   -0.407037    0.000218
  17 C :    0.369142    0.006934
  18 C :    0.369142    0.006934
  19 C :    0.308880    0.000121
  20 H :   -0.425274    0.005144
  21 C :    0.308880    0.000121
  22 H :   -0.425274    0.005144
  23 H :   -0.389100    0.000290
  24 H :   -0.389100    0.000290

  Mayer bond orders larger than 0.100000
B(  0-Cu,  1-S ) :   0.7038 B(  0-Cu,  3-S ) :   0.6970 B(  0-Cu,  5-S ) :   0.7038
B(  0-Cu,  7-S ) :   0.6970 B(  1-S ,  2-C ) :   1.0655 B(  2-C ,  6-C ) :   1.6306
B(  2-C , 17-C ) :   1.0307 B(  3-S ,  4-C ) :   1.1224 B(  4-C ,  8-C ) :   1.4727
B(  4-C , 10-C ) :   1.1324 B(  5-S ,  6-C ) :   1.0655 B(  6-C , 18-C ) :   1.0307
B(  7-S ,  8-C ) :   1.1224 B(  8-C ,  9-C ) :   1.1324 B(  9-C , 13-C ) :   1.5778
B(  9-C , 14-H ) :   0.9784 B( 10-C , 11-C ) :   1.5778 B( 10-C , 12-H ) :   0.9784
B( 11-C , 13-C ) :   1.1463 B( 11-C , 15-H ) :   0.9790 B( 13-C , 16-H ) :   0.9790
B( 17-C , 19-C ) :   1.6863 B( 17-C , 20-H ) :   0.9868 B( 18-C , 21-C ) :   1.6863
B( 18-C , 22-H ) :   0.9868 B( 19-C , 21-C ) :   1.0582 B( 19-C , 23-H ) :   0.9677
B( 21-C , 24-H ) :   0.9677

FINAL SINGLE POINT ENERGY     -3686.648283040143

DIPOLE MOMENT
-------------
                                X             Y             Z
Electronic contribution:     -0.00000       0.00000       0.16227
Nuclear contribution   :      0.00000       0.00000       0.20726
                        -----------------------------------------
Total Dipole Moment    :     -0.00000       0.00000       0.36953
                        -----------------------------------------
Magnitude (a.u.)       :      0.36953
Magnitude (Debye)      :      0.93926

Rotational constants in cm-1:     0.033415     0.004799     0.004196
Rotational constants in MHz :  1001.758445   143.866887   125.800176

                             ****ORCA TERMINATED NORMALLY****
TOTAL RUN TIME: 0 days 6 hours 56 minutes 39 seconds 107 msec
