                         Program Version 5.0.4 -  RELEASE  -
|  1> ! RIJCOSX nofrozencore ReducedPop printbasis
|  2> ! M06L ano-rcc-dzp autoaux
|  3>
|  4> %maxcore 5000
|  5> %basis
|  6> PCDTrimBas overlap
|  7> PCDTrimAuxJ Coulomb
|  8> PCDTrimAuxJK Coulomb
|  9> PCDTrimAuxC Coulomb
| 10> PCDThresh -1
| 11> end
| 12>
| 13> %basis
| 14> newgto Cu "ano-rcc-tzp" end
| 15> newgto S "ano-rcc-tzp" end
| 16> end
| 17>
| 18> %pal
| 19> nprocs 12
| 20> end
| 21>
| 22> % sym SymThresh 1e-2 end
| 23> * xyz -2 2
| 24> Cu -0.0692840834048084 0.001231635975395421 0.06352367448896248
| 25> S -2.3774379050183647 -0.041868602806455636 -0.1518882020004345
| 26> C -2.648044956432467 -0.10826577593375417 -1.8772149657735082
| 27> S -0.06865455848105874 0.08466904174654484 2.3756850376387213
| 28> C 1.6242089801815631 0.12610036340664507 2.805791018506417
| 29> S 0.08758656024731733 -0.07967810511907672 -2.2453960748878306
| 30> C -1.5608026303598634 -0.12482606635939181 -2.797371474853487
| 31> S 2.2504234779007968 0.038775229590781064 0.12003657054858329
| 32> C 2.6448768496358874 0.10587267504127512 1.8122359881311674
| 33> C 3.984819326843851 0.14135891373058332 2.227313403259323
| 34> C 2.012401093388685 0.18062525962775974 4.152236056862185
| 35> C 3.3474332934740345 0.21506427521616664 4.54034569830848
| 36> H 1.2309963364095131 0.19587606322708612 4.906366815143463
| 37> C 4.345797445909083 0.1952537080119563 3.567811942444091
| 38> H 4.751674923151798 0.12534469818078817 1.4581969586421848
| 39> H 3.60288860446329 0.257061011199987 5.595888958287003
| 40> H 5.39537357229367 0.22143844602742713 3.8482773209680454
| 41> C -3.9519492511401504 -0.14683482210455615 -2.393017084168085
| 42> C -1.8433651494392016 -0.17870908317075043 -4.170834751275847
| 43> C -4.209734696894069 -0.2000832806219212 -3.7593766306407472
| 44> H -4.778342309061452 -0.13405127947645282 -1.6881807269039637
| 45> C -3.144268702913206 -0.21619132885918727 -4.657762227529611
| 46> H -1.003682626024283 -0.19071229388348254 -4.859682144189648
| 47> H -5.23614460972696 -0.2286492581524282 -4.115663111511273
| 48> H -3.32280598255161 -0.2575826719130436 -5.729155654494942
| 49> *
| 50>
| 51> % eprnmr
| 52> gtensor true
| 53> Nuclei = all H {aiso,adip,aorb,fgrad,rho}
| 54> Nuclei = all Cu {aiso,adip,aorb,fgrad,rho}
| 55> end
| 56>
| 57>                          ****END OF INPUT****

CARTESIAN COORDINATES (ANGSTROEM)
---------------------------------
  Cu     0.000000    0.000000   -0.094005
  S      0.000000   -1.712826   -1.653063
  C      0.000000   -3.171655   -0.691160
  S      0.000000    1.712826   -1.653063
  C      0.000000    3.171655   -0.691160
  S      0.000000   -1.603677    1.579962
  C      0.000000   -3.122075    0.732473
  S      0.000000    1.603677    1.579962
  C      0.000000    3.122075    0.732473
  C      0.000000    4.330314    1.446071
  C      0.000000    4.430605   -1.309372
  C      0.000000    5.616238   -0.581742
  H      0.000000    4.463996   -2.395003
  C      0.000000    5.566203    0.811187
  H      0.000000    4.276085    2.530898
  H      0.000000    6.570363   -1.102200
  H      0.000000    6.480033    1.399512
  C      0.000000   -4.430605   -1.309372
  C      0.000000   -4.330314    1.446071
  C      0.000000   -5.616238   -0.581742
  H      0.000000   -4.463996   -2.395003
  C      0.000000   -5.566203    0.811187
  H      0.000000   -4.276085    2.530898
  H      0.000000   -6.570363   -1.102200
  H      0.000000   -6.480033    1.399512

 Total Charge           Charge          ....   -2
 Multiplicity           Mult            ....    2
 Number of Electrons    NEL             ....  175
 Basis Dimension        Dim             ....  475

ORBITAL ENERGIES
----------------
                 SPIN UP ORBITALS
  NO   OCC          E(Eh)            E(eV)    Irrep
   0   1.0000    -318.181191     -8658.1504    1-A1
   1   1.0000     -88.014689     -2395.0015    1-B2
   2   1.0000     -88.014664     -2395.0008    2-A1
   3   1.0000     -88.013810     -2394.9775    2-B2
   4   1.0000     -88.013782     -2394.9768    3-A1
   5   1.0000     -38.026401     -1034.7510    4-A1
   6   1.0000     -33.529534      -912.3850    5-A1
   7   1.0000     -33.528694      -912.3621    3-B2
   8   1.0000     -33.514914      -911.9872    1-B1
   9   1.0000      -9.832854      -267.5656    4-B2
  10   1.0000      -9.832849      -267.5654    6-A1
  11   1.0000      -9.831992      -267.5421    5-B2
  12   1.0000      -9.831988      -267.5420    7-A1
  13   1.0000      -9.823877      -267.3213    6-B2
  14   1.0000      -9.823877      -267.3213    8-A1
  15   1.0000      -9.823391      -267.3081    7-B2
  16   1.0000      -9.823391      -267.3081    9-A1
  17   1.0000      -9.816671      -267.1252    8-B2
  18   1.0000      -9.816670      -267.1252   10-A1
  19   1.0000      -9.816265      -267.1141    9-B2
  20   1.0000      -9.816264      -267.1141   11-A1
  21   1.0000      -7.583288      -206.3517   10-B2
  22   1.0000      -7.583282      -206.3516   12-A1
  23   1.0000      -7.582569      -206.3322   11-B2
  24   1.0000      -7.582563      -206.3320   13-A1
  25   1.0000      -5.506524      -149.8401   12-B2
  26   1.0000      -5.506524      -149.8401   14-A1
  27   1.0000      -5.505765      -149.8195   13-B2
  28   1.0000      -5.505765      -149.8195   15-A1
  29   1.0000      -5.501113      -149.6929   14-B2
  30   1.0000      -5.501113      -149.6929   16-A1
  31   1.0000      -5.500544      -149.6774   15-B2
  32   1.0000      -5.500543      -149.6774   17-A1
  33   1.0000      -5.499366      -149.6454    1-A2
  34   1.0000      -5.499366      -149.6454    2-B1
  35   1.0000      -5.498622      -149.6251    2-A2
  36   1.0000      -5.498622      -149.6251    3-B1
  37   1.0000      -4.024017      -109.4991   18-A1
  38   1.0000      -2.545456       -69.2654   19-A1
  39   1.0000      -2.543919       -69.2236   16-B2
  40   1.0000      -2.516491       -68.4772    4-B1
  41   1.0000      -0.588924       -16.0254   20-A1
  42   1.0000      -0.588802       -16.0221   17-B2
  43   1.0000      -0.504212       -13.7203   21-A1
  44   1.0000      -0.503076       -13.6894   18-B2
  45   1.0000      -0.489663       -13.3244   22-A1
  46   1.0000      -0.489396       -13.3172   19-B2
  47   1.0000      -0.409619       -11.1463   23-A1
  48   1.0000      -0.406859       -11.0712   20-B2
  49   1.0000      -0.387686       -10.5495   24-A1
  50   1.0000      -0.380914       -10.3652   21-B2
  51   1.0000      -0.321737        -8.7549   25-A1
  52   1.0000      -0.319014        -8.6808   22-B2
  53   1.0000      -0.299978        -8.1628   26-A1
  54   1.0000      -0.296282        -8.0623   23-B2
  55   1.0000      -0.232760        -6.3337   27-A1
  56   1.0000      -0.227359        -6.1867   24-B2
  57   1.0000      -0.189651        -5.1607   28-A1
  58   1.0000      -0.188775        -5.1368   25-B2
  59   1.0000      -0.177446        -4.8286   29-A1
  60   1.0000      -0.174313        -4.7433   26-B2
  61   1.0000      -0.146552        -3.9879   30-A1
  62   1.0000      -0.143440        -3.9032   27-B2
  63   1.0000      -0.131116        -3.5678   31-A1
  64   1.0000      -0.116583        -3.1724    5-B1
  65   1.0000      -0.116459        -3.1690    3-A2
  66   1.0000      -0.113291        -3.0828   28-B2
  67   1.0000      -0.086536        -2.3548   32-A1
  68   1.0000      -0.069656        -1.8954   33-A1
  69   1.0000      -0.065731        -1.7886   29-B2
  70   1.0000      -0.060827        -1.6552   30-B2
  71   1.0000      -0.038565        -1.0494    4-A2
  72   1.0000      -0.037121        -1.0101    6-B1
  73   1.0000      -0.031051        -0.8449   31-B2
  74   1.0000      -0.029046        -0.7904   34-A1
  75   1.0000      -0.026160        -0.7119    7-B1
  76   1.0000      -0.019108        -0.5199    5-A2
  77   1.0000      -0.002674        -0.0728    8-B1
  78   1.0000      -0.000760        -0.0207   35-A1
  79   1.0000       0.001578         0.0429    6-A2
  80   1.0000       0.018419         0.5012   36-A1
  81   1.0000       0.019324         0.5258   32-B2
  82   1.0000       0.034841         0.9481   37-A1
  83   1.0000       0.050416         1.3719    7-A2
  84   1.0000       0.052367         1.4250    9-B1
  85   1.0000       0.062626         1.7041   10-B1
  86   1.0000       0.087954         2.3934    8-A2
  87   1.0000       0.105279         2.8648   33-B2
  88   0.0000       0.181480         4.9383   38-A1
  89   0.0000       0.181593         4.9414   34-B2
  90   0.0000       0.196858         5.3568   35-B2
  91   0.0000       0.197026         5.3614   39-A1
  92   0.0000       0.200938         5.4678   11-B1

                 SPIN DOWN ORBITALS
  NO   OCC          E(Eh)            E(eV)    Irrep
   0   1.0000    -318.181017     -8658.1456    1-A1
   1   1.0000     -88.013686     -2394.9742    1-B2
   2   1.0000     -88.013661     -2394.9735    2-A1
   3   1.0000     -88.012674     -2394.9466    2-B2
   4   1.0000     -88.012646     -2394.9458    3-A1
   5   1.0000     -38.010520     -1034.3188    4-A1
   6   1.0000     -33.514362      -911.9722    5-A1
   7   1.0000     -33.513555      -911.9502    3-B2
   8   1.0000     -33.510586      -911.8694    1-B1
   9   1.0000      -9.832961      -267.5685    4-B2
  10   1.0000      -9.832956      -267.5683    6-A1
  11   1.0000      -9.832113      -267.5454    5-B2
  12   1.0000      -9.832110      -267.5453    7-A1
  13   1.0000      -9.823852      -267.3206    6-B2
  14   1.0000      -9.823852      -267.3206    8-A1
  15   1.0000      -9.823372      -267.3075    7-B2
  16   1.0000      -9.823372      -267.3075    9-A1
  17   1.0000      -9.816619      -267.1238    8-B2
  18   1.0000      -9.816619      -267.1238   10-A1
  19   1.0000      -9.816199      -267.1124    9-B2
  20   1.0000      -9.816198      -267.1123   11-A1
  21   1.0000      -7.582600      -206.3330   10-B2
  22   1.0000      -7.582594      -206.3329   12-A1
  23   1.0000      -7.581789      -206.3110   11-B2
  24   1.0000      -7.581782      -206.3108   13-A1
  25   1.0000      -5.505654      -149.8165   12-B2
  26   1.0000      -5.505654      -149.8165   14-A1
  27   1.0000      -5.504770      -149.7924   13-B2
  28   1.0000      -5.504769      -149.7924   15-A1
  29   1.0000      -5.499002      -149.6355   14-B2
  30   1.0000      -5.499002      -149.6355   16-A1
  31   1.0000      -5.498603      -149.6246    1-A2
  32   1.0000      -5.498603      -149.6246    2-B1
  33   1.0000      -5.498163      -149.6126   15-B2
  34   1.0000      -5.498163      -149.6126   17-A1
  35   1.0000      -5.497754      -149.6015    2-A2
  36   1.0000      -5.497754      -149.6015    3-B1
  37   1.0000      -3.990255      -108.5804   18-A1
  38   1.0000      -2.504777       -68.1584    4-B1
  39   1.0000      -2.503359       -68.1199   19-A1
  40   1.0000      -2.501801       -68.0775   16-B2
  41   1.0000      -0.588556       -16.0154   20-A1
  42   1.0000      -0.588445       -16.0124   17-B2
  43   1.0000      -0.502883       -13.6841   21-A1
  44   1.0000      -0.501825       -13.6553   18-B2
  45   1.0000      -0.488615       -13.2959   22-A1
  46   1.0000      -0.488375       -13.2894   19-B2
  47   1.0000      -0.405649       -11.0383   23-A1
  48   1.0000      -0.402812       -10.9611   20-B2
  49   1.0000      -0.384490       -10.4625   24-A1
  50   1.0000      -0.377775       -10.2798   21-B2
  51   1.0000      -0.320533        -8.7221   25-A1
  52   1.0000      -0.317491        -8.6394   22-B2
  53   1.0000      -0.298187        -8.1141   26-A1
  54   1.0000      -0.294051        -8.0015   23-B2
  55   1.0000      -0.232184        -6.3181   27-A1
  56   1.0000      -0.226652        -6.1675   24-B2
  57   1.0000      -0.188662        -5.1338   28-A1
  58   1.0000      -0.187872        -5.1123   25-B2
  59   1.0000      -0.176919        -4.8142   29-A1
  60   1.0000      -0.173448        -4.7198   26-B2
  61   1.0000      -0.145861        -3.9691   30-A1
  62   1.0000      -0.141922        -3.8619   27-B2
  63   1.0000      -0.129858        -3.5336   31-A1
  64   1.0000      -0.116412        -3.1677    5-B1
  65   1.0000      -0.116267        -3.1638    3-A2
  66   1.0000      -0.112398        -3.0585   28-B2
  67   1.0000      -0.085118        -2.3162   32-A1
  68   1.0000      -0.068187        -1.8555   33-A1
  69   1.0000      -0.060412        -1.6439   29-B2
  70   1.0000      -0.049686        -1.3520   30-B2
  71   1.0000      -0.036565        -0.9950    4-A2
  72   1.0000      -0.036212        -0.9854    6-B1
  73   1.0000      -0.023032        -0.6267    7-B1
  74   1.0000      -0.022203        -0.6042   34-A1
  75   1.0000      -0.018301        -0.4980    5-A2
  76   1.0000      -0.002431        -0.0661   31-B2
  77   1.0000       0.006962         0.1894    8-B1
  78   1.0000       0.010005         0.2722   35-A1
  79   1.0000       0.013836         0.3765    6-A2
  80   1.0000       0.026160         0.7119   32-B2
  81   1.0000       0.034286         0.9330   36-A1
  82   1.0000       0.043149         1.1741   37-A1
  83   1.0000       0.053260         1.4493    7-A2
  84   1.0000       0.057989         1.5780    9-B1
  85   1.0000       0.064465         1.7542   10-B1
  86   1.0000       0.092119         2.5067    8-A2
  87   0.0000       0.138379         3.7655   33-B2
  88   0.0000       0.182664         4.9705   38-A1
  89   0.0000       0.182758         4.9731   34-B2
  90   0.0000       0.198835         5.4106   35-B2
  91   0.0000       0.199039         5.4161   39-A1

MULLIKEN ATOMIC CHARGES AND SPIN POPULATIONS
--------------------------------------------
   0 Cu:    0.141047    0.375747
   1 S :   -0.434305    0.153357
   2 C :    0.021549   -0.006993
   3 S :   -0.434305    0.153357
   4 C :    0.021549   -0.006993
   5 S :   -0.413140    0.172363
   6 C :    0.023977   -0.007945
   7 S :   -0.413140    0.172363
   8 C :    0.023977   -0.007945
   9 C :   -0.092356   -0.001643
  10 C :   -0.090430   -0.001579
  11 C :   -0.139236   -0.001201
  12 H :    0.064303    0.001875
  13 C :   -0.136578   -0.000577
  14 H :    0.064025    0.002249
  15 H :    0.031325    0.001054
  16 H :    0.030342    0.001166
  17 C :   -0.090430   -0.001579
  18 C :   -0.092356   -0.001643
  19 C :   -0.139236   -0.001201
  20 H :    0.064303    0.001875
  21 C :   -0.136578   -0.000577
  22 H :    0.064025    0.002249
  23 H :    0.031325    0.001054
  24 H :    0.030342    0.001166
Sum of atomic charges         :   -2.0000000

LOEWDIN ATOMIC CHARGES AND SPIN POPULATIONS
-------------------------------------------
   0 Cu:   -0.893106    0.442420
   1 S :    0.012902    0.116419
   2 C :   -0.037457    0.004721
   3 S :    0.012902    0.116419
   4 C :   -0.037457    0.004721
   5 S :    0.003528    0.131533
   6 C :   -0.037698    0.005605
   7 S :    0.003528    0.131533
   8 C :   -0.037698    0.005605
   9 C :    0.306206    0.004262
  10 C :    0.305856    0.003532
  11 C :    0.311297   -0.000326
  12 H :   -0.447171    0.005953
  13 C :    0.311595    0.000068
  14 H :   -0.446235    0.006606
  15 H :   -0.418773    0.000142
  16 H :   -0.417497    0.000275
  17 C :    0.305856    0.003532
  18 C :    0.306206    0.004262
  19 C :    0.311297   -0.000326
  20 H :   -0.447171    0.005953
  21 C :    0.311595    0.000068
  22 H :   -0.446235    0.006606
  23 H :   -0.418773    0.000142
  24 H :   -0.417497    0.000275

  Mayer bond orders larger than 0.100000
B(  0-Cu,  1-S ) :   0.7064 B(  0-Cu,  3-S ) :   0.7064 B(  0-Cu,  5-S ) :   0.6963
B(  0-Cu,  7-S ) :   0.6963 B(  1-S ,  2-C ) :   1.1805 B(  2-C ,  6-C ) :   1.2440
B(  2-C , 17-C ) :   1.3198 B(  3-S ,  4-C ) :   1.1805 B(  4-C ,  8-C ) :   1.2440
B(  4-C , 10-C ) :   1.3198 B(  5-S ,  6-C ) :   1.1892 B(  6-C , 18-C ) :   1.3163
B(  7-S ,  8-C ) :   1.1892 B(  8-C ,  9-C ) :   1.3163 B(  9-C , 13-C ) :   1.3630
B(  9-C , 14-H ) :   0.9699 B( 10-C , 11-C ) :   1.3615 B( 10-C , 12-H ) :   0.9702
B( 11-C , 13-C ) :   1.3390 B( 11-C , 15-H ) :   0.9886 B( 13-C , 16-H ) :   0.9885
B( 17-C , 19-C ) :   1.3615 B( 17-C , 20-H ) :   0.9702 B( 18-C , 21-C ) :   1.3630
B( 18-C , 22-H ) :   0.9699 B( 19-C , 21-C ) :   1.3390 B( 19-C , 23-H ) :   0.9886
B( 21-C , 24-H ) :   0.9885

FINAL SINGLE POINT ENERGY     -3686.928355798610

DIPOLE MOMENT
-------------
                                X             Y             Z
Electronic contribution:     -0.00000       0.00000      -1.24037
Nuclear contribution   :      0.00000       0.00000       1.30487
                        -----------------------------------------
Total Dipole Moment    :     -0.00000       0.00000       0.06450
                        -----------------------------------------
Magnitude (a.u.)       :      0.06450
Magnitude (Debye)      :      0.16395

Rotational constants in cm-1:     0.033287     0.004814     0.004206
Rotational constants in MHz :   997.923224   144.331787   126.094472

                             ****ORCA TERMINATED NORMALLY****
TOTAL RUN TIME: 0 days 6 hours 29 minutes 57 seconds 979 msec
