                         Program Version 5.0.4 -  RELEASE  -
|  1> ! RIJCOSX nofrozencore ReducedPop printbasis
|  2> ! M06L ano-rcc-dzp autoaux
|  3>
|  4> %maxcore 5000
|  5> %basis
|  6> PCDTrimBas overlap
|  7> PCDTrimAuxJ Coulomb
|  8> PCDTrimAuxJK Coulomb
|  9> PCDTrimAuxC Coulomb
| 10> PCDThresh -1
| 11> end
| 12>
| 13> %basis
| 14> newgto Cu "ano-rcc-tzp" end
| 15> newgto S "ano-rcc-tzp" end
| 16> end
| 17>
| 18> %pal
| 19> nprocs 12
| 20> end
| 21>
| 22> % sym SymThresh 1e-2 end
| 23> * xyz -2 2
| 24> Cu -6.606129128491502e-07 1.243517668401744e-06 1.3135595818100693e-07
| 25> S -1.0294745879205132 -0.7871935012743528 1.9216472899349442
| 26> C -0.42564818032176766 -2.410361239772447 2.1081350893492092
| 27> S -1.067808552111987 2.0485728842533497 0.1880257720191922
| 28> C -0.49832827271915087 2.966112643586651 -1.1787251428102965
| 29> S 1.067805978854414 -2.0485730290071107 -0.18802211724261733
| 30> C 0.49832832211770467 -2.9660686708218114 1.1786973688384503
| 31> S 1.029473950372293 0.7871930385172097 -1.921646115461405
| 32> C 0.42564205028800967 2.410386081629956 -2.108142252086231
| 33> C 0.8537563219825964 3.1968277189212526 -3.1965226884351194
| 34> C -0.9546803894976124 4.2845039937879426 -1.3774145616584923
| 35> C -0.5224339339125392 5.061877786924011 -2.4658041452311124
| 36> H -1.5410870871212814 4.630716509539377 -0.7834652342717487
| 37> C 0.3930411945821942 4.511357851885171 -3.386737191368768
| 38> H 1.437962592402694 2.8390348930098397 -3.780128444933601
| 39> H -0.8239524427866033 5.887698971268781 -2.568565027077087
| 40> H 0.6766638679852647 4.984426620633334 -4.077574311642276
| 41> C -0.854178942625435 -3.196568462545875 3.1969446065836657
| 42> C 0.9553361832534787 -4.2848671021494 1.3767351671724934
| 43> C -0.39329688755980186 -4.511731252482648 3.387326552968303
| 44> H -1.4331908930545203 -2.8419749983445217 3.775372810911558
| 45> C 0.5227317123330683 -5.06271268763037 2.4659178062305345
| 46> H 1.5339010865670615 -4.626487674006415 0.7907523307490781
| 47> H -0.6739958041360301 -4.980055415065765 4.07112531659014
| 48> H 0.8206108865192523 -5.878586224951692 2.5674509834188237
| 49> *
| 50>
| 51> % eprnmr
| 52> gtensor true
| 53> Nuclei = all H {aiso,adip,aorb,fgrad,rho}
| 54> Nuclei = all Cu {aiso,adip,aorb,fgrad,rho}
| 55> end
| 56>
| 57>                          ****END OF INPUT****

CARTESIAN COORDINATES (ANGSTROEM)
---------------------------------
  Cu    -0.000000    0.000000    0.000001
  S      1.615578    0.000000   -1.661964
  C      0.711758    0.000000   -3.150974
  S      1.615579    0.000000    1.661962
  C      0.711753    0.000000    3.151012
  S     -1.615578    0.000000   -1.661964
  C     -0.711758    0.000000   -3.150974
  S     -1.615579    0.000000    1.661962
  C     -0.711753    0.000000    3.151012
  C     -1.393075    0.000000    4.384672
  C      1.393075    0.000000    4.384672
  C      0.705210    0.000000    5.610611
  H      2.294823    0.000000    4.377048
  C     -0.705210    0.000000    5.610611
  H     -2.294823    0.000000    4.377048
  H      1.155947    0.000000    6.371734
  H     -1.155947    0.000000    6.371734
  C      1.393906    0.000000   -4.384651
  C     -1.393906    0.000000   -4.384651
  C      0.705635    0.000000   -5.611310
  H      2.285611    0.000000   -4.377145
  C     -0.705635    0.000000   -5.611310
  H     -2.285611    0.000000   -4.377145
  H      1.151330    0.000000   -6.364006
  H     -1.151330    0.000000   -6.364006

 Total Charge           Charge          ....   -2
 Multiplicity           Mult            ....    2
 Number of Electrons    NEL             ....  175
 Basis Dimension        Dim             ....  475

ORBITAL ENERGIES
----------------
                 SPIN UP ORBITALS
  NO   OCC          E(Eh)            E(eV)    Irrep
   0   1.0000    -318.177120     -8658.0396    1-A1
   1   1.0000     -88.009450     -2394.8589    1-B1
   2   1.0000     -88.009448     -2394.8588    2-A1
   3   1.0000     -88.009393     -2394.8573    2-B1
   4   1.0000     -88.009373     -2394.8568    3-A1
   5   1.0000     -38.022290     -1034.6391    4-A1
   6   1.0000     -33.525434      -912.2734    3-B1
   7   1.0000     -33.524594      -912.2506    5-A1
   8   1.0000     -33.510802      -911.8753    1-B2
   9   1.0000      -9.826416      -267.3904    6-A1
  10   1.0000      -9.826306      -267.3874    7-A1
  11   1.0000      -9.826084      -267.3813    4-B1
  12   1.0000      -9.825974      -267.3783    5-B1
  13   1.0000      -9.798378      -266.6274    8-A1
  14   1.0000      -9.798002      -266.6172    6-B1
  15   1.0000      -9.797407      -266.6010    9-A1
  16   1.0000      -9.797034      -266.5909    7-B1
  17   1.0000      -9.793620      -266.4979    8-B1
  18   1.0000      -9.793616      -266.4978   10-A1
  19   1.0000      -9.792669      -266.4721    9-B1
  20   1.0000      -9.792666      -266.4720   11-A1
  21   1.0000      -7.578248      -206.2146   10-B1
  22   1.0000      -7.578239      -206.2144   12-A1
  23   1.0000      -7.578194      -206.2132   11-B1
  24   1.0000      -7.578184      -206.2129   13-A1
  25   1.0000      -5.501361      -149.6997   12-B1
  26   1.0000      -5.501361      -149.6996   14-A1
  27   1.0000      -5.501303      -149.6981   13-B1
  28   1.0000      -5.501303      -149.6981   15-A1
  29   1.0000      -5.496162      -149.5582   14-B1
  30   1.0000      -5.496162      -149.5582   16-A1
  31   1.0000      -5.496110      -149.5568   15-B1
  32   1.0000      -5.496110      -149.5568   17-A1
  33   1.0000      -5.494366      -149.5093    1-A2
  34   1.0000      -5.494366      -149.5093    2-B2
  35   1.0000      -5.494314      -149.5079    2-A2
  36   1.0000      -5.494314      -149.5079    3-B2
  37   1.0000      -4.019901      -109.3871   18-A1
  38   1.0000      -2.541332       -69.1532   16-B1
  39   1.0000      -2.539821       -69.1121   19-A1
  40   1.0000      -2.512367       -68.3650    4-B2
  41   1.0000      -0.582198       -15.8424   20-A1
  42   1.0000      -0.582070       -15.8389   21-A1
  43   1.0000      -0.504778       -13.7357   22-A1
  44   1.0000      -0.503759       -13.7080   23-A1
  45   1.0000      -0.496282       -13.5045   17-B1
  46   1.0000      -0.495529       -13.4840   18-B1
  47   1.0000      -0.411955       -11.2099   19-B1
  48   1.0000      -0.409580       -11.1452   20-B1
  49   1.0000      -0.393968       -10.7204   24-A1
  50   1.0000      -0.388898       -10.5825   25-A1
  51   1.0000      -0.338025        -9.1981   26-A1
  52   1.0000      -0.334196        -9.0939   27-A1
  53   1.0000      -0.321750        -8.7553   21-B1
  54   1.0000      -0.318607        -8.6697   22-B1
  55   1.0000      -0.246996        -6.7211   28-A1
  56   1.0000      -0.241633        -6.5752   29-A1
  57   1.0000      -0.203928        -5.5492   23-B1
  58   1.0000      -0.200149        -5.4463   24-B1
  59   1.0000      -0.180987        -4.9249   30-A1
  60   1.0000      -0.179795        -4.8925   31-A1
  61   1.0000      -0.153885        -4.1874   25-B1
  62   1.0000      -0.150715        -4.1012   26-B1
  63   1.0000      -0.130851        -3.5606   32-A1
  64   1.0000      -0.118483        -3.2241   33-A1
  65   1.0000      -0.107251        -2.9185    5-B2
  66   1.0000      -0.106907        -2.9091    6-B2
  67   1.0000      -0.091073        -2.4782   34-A1
  68   1.0000      -0.064487        -1.7548   27-B1
  69   1.0000      -0.060848        -1.6557   35-A1
  70   1.0000      -0.060334        -1.6418   28-B1
  71   1.0000      -0.031700        -0.8626    7-B2
  72   1.0000      -0.029856        -0.8124    8-B2
  73   1.0000      -0.026669        -0.7257   29-B1
  74   1.0000      -0.024325        -0.6619   36-A1
  75   1.0000      -0.020617        -0.5610    3-A2
  76   1.0000      -0.012568        -0.3420    4-A2
  77   1.0000       0.002729         0.0743    5-A2
  78   1.0000       0.003924         0.1068   37-A1
  79   1.0000       0.006300         0.1714    9-B2
  80   1.0000       0.022995         0.6257   38-A1
  81   1.0000       0.024316         0.6617   39-A1
  82   1.0000       0.038592         1.0501   30-B1
  83   1.0000       0.055298         1.5047    6-A2
  84   1.0000       0.057238         1.5575    7-A2
  85   1.0000       0.067915         1.8481   10-B2
  86   1.0000       0.092683         2.5220   11-B2
  87   1.0000       0.109233         2.9724   31-B1
  88   0.0000       0.186977         5.0879   40-A1
  89   0.0000       0.187086         5.0909   41-A1
  90   0.0000       0.201531         5.4839   32-B1
  91   0.0000       0.201794         5.4911   33-B1
  92   0.0000       0.203369         5.5339   12-B2

                 SPIN DOWN ORBITALS
  NO   OCC          E(Eh)            E(eV)    Irrep
   0   1.0000    -318.176947     -8658.0349    1-A1
   1   1.0000     -88.008384     -2394.8299    1-B1
   2   1.0000     -88.008383     -2394.8299    2-A1
   3   1.0000     -88.008327     -2394.8283    2-B1
   4   1.0000     -88.008308     -2394.8278    3-A1
   5   1.0000     -38.006379     -1034.2062    4-A1
   6   1.0000     -33.510234      -911.8598    3-B1
   7   1.0000     -33.509425      -911.8378    5-A1
   8   1.0000     -33.506472      -911.7574    1-B2
   9   1.0000      -9.826526      -267.3934    6-A1
  10   1.0000      -9.826416      -267.3904    7-A1
  11   1.0000      -9.826194      -267.3843    4-B1
  12   1.0000      -9.826084      -267.3813    5-B1
  13   1.0000      -9.798357      -266.6268    8-A1
  14   1.0000      -9.797981      -266.6166    6-B1
  15   1.0000      -9.797386      -266.6004    9-A1
  16   1.0000      -9.797013      -266.5903    7-B1
  17   1.0000      -9.793560      -266.4963    8-B1
  18   1.0000      -9.793557      -266.4962   10-A1
  19   1.0000      -9.792610      -266.4705    9-B1
  20   1.0000      -9.792606      -266.4704   11-A1
  21   1.0000      -7.577518      -206.1948   10-B1
  22   1.0000      -7.577510      -206.1945   12-A1
  23   1.0000      -7.577465      -206.1933   11-B1
  24   1.0000      -7.577454      -206.1930   13-A1
  25   1.0000      -5.500425      -149.6742   12-B1
  26   1.0000      -5.500424      -149.6742   14-A1
  27   1.0000      -5.500366      -149.6726   13-B1
  28   1.0000      -5.500366      -149.6726   15-A1
  29   1.0000      -5.493938      -149.4977   14-B1
  30   1.0000      -5.493938      -149.4976   16-A1
  31   1.0000      -5.493887      -149.4963   15-B1
  32   1.0000      -5.493886      -149.4962   17-A1
  33   1.0000      -5.493554      -149.4872    1-A2
  34   1.0000      -5.493553      -149.4872    2-B2
  35   1.0000      -5.493501      -149.4858    2-A2
  36   1.0000      -5.493501      -149.4858    3-B2
  37   1.0000      -3.986028      -108.4653   18-A1
  38   1.0000      -2.500636       -68.0458    4-B2
  39   1.0000      -2.499100       -68.0040   16-B1
  40   1.0000      -2.497566       -67.9622   19-A1
  41   1.0000      -0.581821       -15.8322   20-A1
  42   1.0000      -0.581704       -15.8290   21-A1
  43   1.0000      -0.503588       -13.7033   22-A1
  44   1.0000      -0.502627       -13.6772   23-A1
  45   1.0000      -0.495487       -13.4829   17-B1
  46   1.0000      -0.494723       -13.4621   18-B1
  47   1.0000      -0.408137       -11.1060   19-B1
  48   1.0000      -0.405722       -11.0403   20-B1
  49   1.0000      -0.391360       -10.6495   24-A1
  50   1.0000      -0.386483       -10.5167   25-A1
  51   1.0000      -0.336326        -9.1519   26-A1
  52   1.0000      -0.332145        -9.0381   27-A1
  53   1.0000      -0.319949        -8.7063   21-B1
  54   1.0000      -0.316526        -8.6131   22-B1
  55   1.0000      -0.246291        -6.7019   28-A1
  56   1.0000      -0.240712        -6.5501   29-A1
  57   1.0000      -0.203139        -5.5277   23-B1
  58   1.0000      -0.198955        -5.4138   24-B1
  59   1.0000      -0.179895        -4.8952   30-A1
  60   1.0000      -0.178810        -4.8657   31-A1
  61   1.0000      -0.153148        -4.1674   25-B1
  62   1.0000      -0.149218        -4.0604   26-B1
  63   1.0000      -0.129787        -3.5317   32-A1
  64   1.0000      -0.117733        -3.2037   33-A1
  65   1.0000      -0.107033        -2.9125    5-B2
  66   1.0000      -0.106675        -2.9028    6-B2
  67   1.0000      -0.089427        -2.4334   34-A1
  68   1.0000      -0.062921        -1.7122   27-B1
  69   1.0000      -0.058912        -1.6031   35-A1
  70   1.0000      -0.044962        -1.2235   28-B1
  71   1.0000      -0.029562        -0.8044    7-B2
  72   1.0000      -0.028957        -0.7880    8-B2
  73   1.0000      -0.017409        -0.4737   36-A1
  74   1.0000      -0.017055        -0.4641    3-A2
  75   1.0000      -0.011718        -0.3189    4-A2
  76   1.0000       0.001615         0.0439   29-B1
  77   1.0000       0.012088         0.3289    5-A2
  78   1.0000       0.014865         0.4045   37-A1
  79   1.0000       0.018462         0.5024    9-B2
  80   1.0000       0.031013         0.8439   38-A1
  81   1.0000       0.038648         1.0517   39-A1
  82   1.0000       0.046882         1.2757   30-B1
  83   1.0000       0.058050         1.5796    6-A2
  84   1.0000       0.062707         1.7063    7-A2
  85   1.0000       0.069709         1.8969   10-B2
  86   1.0000       0.096763         2.6331   11-B2
  87   0.0000       0.142384         3.8745   31-B1
  88   0.0000       0.187412         5.0997   40-A1
  89   0.0000       0.187478         5.1015   41-A1
  90   0.0000       0.202016         5.4971   32-B1
  91   0.0000       0.202266         5.5039   33-B1

MULLIKEN ATOMIC CHARGES AND SPIN POPULATIONS
--------------------------------------------
   0 Cu:    0.141784    0.377162
   1 S :   -0.443417    0.162814
   2 C :   -0.012810   -0.007407
   3 S :   -0.442738    0.162739
   4 C :   -0.010763   -0.007405
   5 S :   -0.443417    0.162814
   6 C :   -0.012810   -0.007407
   7 S :   -0.442738    0.162739
   8 C :   -0.010763   -0.007405
   9 C :   -0.312971   -0.002284
  10 C :   -0.312971   -0.002284
  11 C :   -0.414552   -0.000579
  12 H :    0.324245    0.002588
  13 C :   -0.414552   -0.000579
  14 H :    0.324245    0.002588
  15 H :    0.321257    0.000620
  16 H :    0.321257    0.000620
  17 C :   -0.329267   -0.002292
  18 C :   -0.329267   -0.002292
  19 C :   -0.432994   -0.000570
  20 H :    0.343006    0.002591
  21 C :   -0.432994   -0.000570
  22 H :    0.343006    0.002591
  23 H :    0.340111    0.000605
  24 H :    0.340111    0.000605
Sum of atomic charges         :   -2.0000000

LOEWDIN ATOMIC CHARGES AND SPIN POPULATIONS
-------------------------------------------
   0 Cu:   -0.893943    0.443870
   1 S :    0.017359    0.123814
   2 C :    0.004522    0.005357
   3 S :    0.016863    0.123762
   4 C :    0.002018    0.005343
   5 S :    0.017359    0.123814
   6 C :    0.004522    0.005357
   7 S :    0.016863    0.123762
   8 C :    0.002018    0.005343
   9 C :    0.470503    0.004139
  10 C :    0.470503    0.004139
  11 C :    0.524906   -0.000088
  12 H :   -0.653603    0.005859
  13 C :    0.524906   -0.000088
  14 H :   -0.653603    0.005859
  15 H :   -0.637283   -0.000006
  16 H :   -0.637283   -0.000006
  17 C :    0.480956    0.004152
  18 C :    0.480956    0.004152
  19 C :    0.537412   -0.000087
  20 H :   -0.666887    0.005834
  21 C :    0.537412   -0.000087
  22 H :   -0.666887    0.005834
  23 H :   -0.649794   -0.000013
  24 H :   -0.649794   -0.000013

  Mayer bond orders larger than 0.100000
B(  0-Cu,  1-S ) :   0.7015 B(  0-Cu,  3-S ) :   0.7014 B(  0-Cu,  5-S ) :   0.7015
B(  0-Cu,  7-S ) :   0.7014 B(  1-S ,  2-C ) :   1.1912 B(  2-C ,  6-C ) :   1.2471
B(  2-C , 17-C ) :   1.3563 B(  3-S ,  4-C ) :   1.1910 B(  4-C ,  8-C ) :   1.2469
B(  4-C , 10-C ) :   1.3534 B(  5-S ,  6-C ) :   1.1912 B(  6-C , 18-C ) :   1.3563
B(  7-S ,  8-C ) :   1.1910 B(  8-C ,  9-C ) :   1.3534 B(  9-C , 13-C ) :   1.4417
B(  9-C , 14-H ) :   0.7698 B( 10-C , 11-C ) :   1.4417 B( 10-C , 12-H ) :   0.7698
B( 11-C , 13-C ) :   1.4213 B( 11-C , 15-H ) :   0.7670 B( 13-C , 16-H ) :   0.7670
B( 17-C , 19-C ) :   1.4481 B( 17-C , 20-H ) :   0.7505 B( 18-C , 21-C ) :   1.4481
B( 18-C , 22-H ) :   0.7505 B( 19-C , 21-C ) :   1.4275 B( 19-C , 23-H ) :   0.7468
B( 21-C , 24-H ) :   0.7468

FINAL SINGLE POINT ENERGY     -3686.631352379879

DIPOLE MOMENT
-------------
                                X             Y             Z
Electronic contribution:     -0.00000      -0.00000      -0.02442
Nuclear contribution   :     -0.00000       0.00000       0.01431
                        -----------------------------------------
Total Dipole Moment    :     -0.00000      -0.00000      -0.01010
                        -----------------------------------------
Magnitude (a.u.)       :      0.01010
Magnitude (Debye)      :      0.02568

Rotational constants in cm-1:     0.033529     0.004805     0.004203
Rotational constants in MHz :  1005.185692   144.056666   125.999271

                             ****ORCA TERMINATED NORMALLY****
TOTAL RUN TIME: 0 days 5 hours 47 minutes 59 seconds 879 msec
