                         Program Version 5.0.4 -  RELEASE  -
|  1> ! RIJCOSX nofrozencore ReducedPop printbasis
|  2> ! M06L ano-rcc-dzp autoaux
|  3>
|  4> %maxcore 5000
|  5> %basis
|  6> PCDTrimBas overlap
|  7> PCDTrimAuxJ Coulomb
|  8> PCDTrimAuxJK Coulomb
|  9> PCDTrimAuxC Coulomb
| 10> PCDThresh -1
| 11> end
| 12>
| 13> %basis
| 14> newgto Cu "ano-rcc-tzp" end
| 15> newgto S "ano-rcc-tzp" end
| 16> end
| 17>
| 18> %pal
| 19> nprocs 12
| 20> end
| 21>
| 22> % sym SymThresh 1e-2 end
| 23> * xyz -2 2
| 24> Cu -0.00014673786487393934 0.00036963840697714034 -3.219389848464305e-05
| 25> S -0.37479650900600425 -0.34369127519852993 -2.2613216910436074
| 26> C 1.1074706372501884 0.15270293631710052 -3.031513149805192
| 27> S -2.111866768775356 -0.7896861958237841 0.5372018589307916
| 28> C -2.1873853412434174 -0.6912516102720728 2.275374528630108
| 29> S 2.110527004259727 0.7930611149130515 -0.5374957997131965
| 30> C 2.20236363638273 0.6535207003989776 -2.2720883303908033
| 31> S 0.3734541701418692 0.3470726791721303 2.261027185455966
| 32> C -1.092442326197034 -0.19055983822866407 3.034810321403379
| 33> C -1.2377518104559613 -0.08893554511182386 4.4262404802995805
| 34> C -3.3576361881743675 -1.0585925511429342 2.9558746070852875
| 35> C -3.4698064382911813 -0.9718613634938665 4.3380767987080295
| 36> H -4.145823099736225 -1.5424148307375138 2.377165875239565
| 37> C -2.3984557671485387 -0.48191772136769 5.081155689286511
| 38> H -0.35661340389261853 0.19096392409332222 5.005410644549856
| 39> H -4.2922176313564195 -1.5241573251075125 4.848938914269823
| 40> H -2.3681324289128574 -0.644165790553032 6.183479388281445
| 41> C 1.2257471007477057 0.11917442661724509 -4.428873325171883
| 42> C 3.3456531184984937 1.0887798218517757 -2.9585046174073697
| 43> C 2.378808707110543 0.5314094321845817 -5.085466202165572
| 44> H 0.43009965306867287 -0.3760786530250646 -4.989287956326039
| 45> C 3.4501273827788896 1.0214336721588961 -4.3423943313093165
| 46> H 4.21940880006991 1.3570510311040196 -2.3610223243032076
| 47> H 2.5403331412277685 0.21038318800880038 -6.145699373323927
| 48> H 4.464400323231786 1.0904201167536112 -4.81116285294896
| 49> *
| 50>
| 51> % eprnmr
| 52> gtensor true
| 53> Nuclei = all H {aiso,adip,aorb,fgrad,rho}
| 54> Nuclei = all Cu {aiso,adip,aorb,fgrad,rho}
| 55> end
| 56>
| 57>                          ****END OF INPUT****

CARTESIAN COORDINATES (ANGSTROEM)
---------------------------------
  Cu     0.000399    0.000010   -0.000000
  S      0.041993   -1.661401   -1.615597
  C      0.054841   -3.151236   -0.711747
  S     -0.038347    1.661489   -1.615597
  C     -0.095625    3.150252   -0.711747
  S      0.041993   -1.661401    1.615597
  C      0.054841   -3.151236    0.711747
  S     -0.038347    1.661489    1.615597
  C     -0.095625    3.150252    0.711747
  C     -0.090166    4.384561    1.378053
  C     -0.090166    4.384561   -1.378053
  C     -0.109364    5.595178   -0.696420
  H     -0.201452    4.371455   -2.463249
  C     -0.109364    5.595178    0.696420
  H     -0.201452    4.371455    2.463249
  H     -0.382238    6.522877   -1.250748
  H     -0.382238    6.522877    1.250748
  C      0.122770   -4.383775   -1.378053
  C      0.122770   -4.383775    1.378053
  C      0.162815   -5.593888   -0.696420
  H      0.001557   -4.376279   -2.463249
  C      0.162815   -5.593888    0.696420
  H      0.001557   -4.376279    2.463249
  H     -0.085840   -6.534174   -1.250748
  H     -0.085840   -6.534174    1.250748

 Total Charge           Charge          ....   -2
 Multiplicity           Mult            ....    2
 Number of Electrons    NEL             ....  175
 Basis Dimension        Dim             ....  475

ORBITAL ENERGIES
----------------
                 SPIN UP ORBITALS
  NO   OCC          E(Eh)            E(eV)    Irrep
   0   1.0000    -318.182580     -8658.1882    1-A'
   1   1.0000     -88.015733     -2395.0298    1-A"
   2   1.0000     -88.015730     -2395.0298    2-A'
   3   1.0000     -88.015664     -2395.0280    2-A"
   4   1.0000     -88.015645     -2395.0275    3-A'
   5   1.0000     -38.027789     -1034.7888    4-A'
   6   1.0000     -33.530928      -912.4229    3-A"
   7   1.0000     -33.530076      -912.3997    5-A'
   8   1.0000     -33.516312      -912.0252    6-A'
   9   1.0000      -9.834081      -267.5990    7-A'
  10   1.0000      -9.833972      -267.5960    8-A'
  11   1.0000      -9.833751      -267.5900    4-A"
  12   1.0000      -9.833642      -267.5870    5-A"
  13   1.0000      -9.827554      -267.4213    9-A'
  14   1.0000      -9.827125      -267.4097    6-A"
  15   1.0000      -9.827103      -267.4091   10-A'
  16   1.0000      -9.826674      -267.3974    7-A"
  17   1.0000      -9.818176      -267.1662    8-A"
  18   1.0000      -9.818172      -267.1660   11-A'
  19   1.0000      -9.818024      -267.1620    9-A"
  20   1.0000      -9.818019      -267.1619   12-A'
  21   1.0000      -7.584416      -206.3824   10-A"
  22   1.0000      -7.584406      -206.3822   13-A'
  23   1.0000      -7.584349      -206.3806   11-A"
  24   1.0000      -7.584339      -206.3803   14-A'
  25   1.0000      -5.507624      -149.8701   12-A"
  26   1.0000      -5.507623      -149.8701   15-A'
  27   1.0000      -5.507555      -149.8682   13-A"
  28   1.0000      -5.507554      -149.8682   16-A'
  29   1.0000      -5.502302      -149.7253   14-A"
  30   1.0000      -5.502302      -149.7252   17-A'
  31   1.0000      -5.502240      -149.7236   15-A"
  32   1.0000      -5.502239      -149.7235   18-A'
  33   1.0000      -5.500500      -149.6762   16-A"
  34   1.0000      -5.500499      -149.6762   19-A'
  35   1.0000      -5.500430      -149.6743   17-A"
  36   1.0000      -5.500430      -149.6743   20-A'
  37   1.0000      -4.025401      -109.5367   21-A'
  38   1.0000      -2.546837       -69.3030   18-A"
  39   1.0000      -2.545290       -69.2609   22-A'
  40   1.0000      -2.517894       -68.5154   23-A'
  41   1.0000      -0.590543       -16.0695   24-A'
  42   1.0000      -0.590415       -16.0660   25-A'
  43   1.0000      -0.505077       -13.7438   26-A'
  44   1.0000      -0.503961       -13.7135   27-A'
  45   1.0000      -0.490653       -13.3514   19-A"
  46   1.0000      -0.490396       -13.3444   20-A"
  47   1.0000      -0.410176       -11.1615   21-A"
  48   1.0000      -0.407551       -11.0900   22-A"
  49   1.0000      -0.387916       -10.5557   28-A'
  50   1.0000      -0.381208       -10.3732   29-A'
  51   1.0000      -0.322357        -8.7718   30-A'
  52   1.0000      -0.319748        -8.7008   31-A'
  53   1.0000      -0.297907        -8.1065   23-A"
  54   1.0000      -0.294286        -8.0079   24-A"
  55   1.0000      -0.230512        -6.2725   32-A'
  56   1.0000      -0.225172        -6.1272   33-A'
  57   1.0000      -0.191046        -5.1986   34-A'
  58   1.0000      -0.190184        -5.1752   35-A'
  59   1.0000      -0.175571        -4.7775   25-A"
  60   1.0000      -0.172889        -4.7046   26-A"
  61   1.0000      -0.145003        -3.9457   27-A"
  62   1.0000      -0.141626        -3.8538   28-A"
  63   1.0000      -0.133863        -3.6426   36-A'
  64   1.0000      -0.120854        -3.2886   37-A'
  65   1.0000      -0.115126        -3.1327   38-A'
  66   1.0000      -0.110524        -3.0075   39-A'
  67   1.0000      -0.087384        -2.3778   40-A'
  68   1.0000      -0.070462        -1.9174   29-A"
  69   1.0000      -0.066438        -1.8079   30-A"
  70   1.0000      -0.063012        -1.7146   41-A'
  71   1.0000      -0.039213        -1.0670   42-A'
  72   1.0000      -0.038419        -1.0454   43-A'
  73   1.0000      -0.032541        -0.8855   31-A"
  74   1.0000      -0.029541        -0.8039   44-A'
  75   1.0000      -0.027050        -0.7361   32-A"
  76   1.0000      -0.019696        -0.5359   33-A"
  77   1.0000      -0.003686        -0.1003   34-A"
  78   1.0000      -0.001828        -0.0497   45-A'
  79   1.0000       0.000121         0.0033   46-A'
  80   1.0000       0.017243         0.4692   47-A'
  81   1.0000       0.018015         0.4902   48-A'
  82   1.0000       0.033570         0.9135   35-A"
  83   1.0000       0.049095         1.3359   36-A"
  84   1.0000       0.051256         1.3948   37-A"
  85   1.0000       0.061190         1.6651   49-A'
  86   1.0000       0.086159         2.3445   50-A'
  87   1.0000       0.103940         2.8284   38-A"
  88   0.0000       0.180424         4.9096   51-A'
  89   0.0000       0.180584         4.9139   52-A'
  90   0.0000       0.196520         5.3476   39-A"
  91   0.0000       0.196679         5.3519   40-A"
  92   0.0000       0.197878         5.3845   53-A'

                 SPIN DOWN ORBITALS
  NO   OCC          E(Eh)            E(eV)    Irrep
   0   1.0000    -318.182406     -8658.1834    1-A'
   1   1.0000     -88.014663     -2395.0008    1-A"
   2   1.0000     -88.014661     -2395.0007    2-A'
   3   1.0000     -88.014594     -2394.9989    2-A"
   4   1.0000     -88.014576     -2394.9984    3-A'
   5   1.0000     -38.011916     -1034.3568    4-A'
   6   1.0000     -33.515763      -912.0103    3-A"
   7   1.0000     -33.514944      -911.9880    5-A'
   8   1.0000     -33.511986      -911.9075    6-A'
   9   1.0000      -9.834196      -267.6021    7-A'
  10   1.0000      -9.834087      -267.5991    8-A'
  11   1.0000      -9.833866      -267.5931    4-A"
  12   1.0000      -9.833757      -267.5901    5-A"
  13   1.0000      -9.827533      -267.4208    9-A'
  14   1.0000      -9.827103      -267.4091    6-A"
  15   1.0000      -9.827082      -267.4085   10-A'
  16   1.0000      -9.826652      -267.3968    7-A"
  17   1.0000      -9.818115      -267.1645    8-A"
  18   1.0000      -9.818111      -267.1644   11-A'
  19   1.0000      -9.817963      -267.1604    9-A"
  20   1.0000      -9.817959      -267.1602   12-A'
  21   1.0000      -7.583683      -206.3625   10-A"
  22   1.0000      -7.583674      -206.3623   13-A'
  23   1.0000      -7.583615      -206.3607   11-A"
  24   1.0000      -7.583605      -206.3604   14-A'
  25   1.0000      -5.506695      -149.8448   12-A"
  26   1.0000      -5.506694      -149.8448   15-A'
  27   1.0000      -5.506626      -149.8429   13-A"
  28   1.0000      -5.506625      -149.8429   16-A'
  29   1.0000      -5.500059      -149.6642   14-A"
  30   1.0000      -5.500058      -149.6642   17-A'
  31   1.0000      -5.499994      -149.6624   15-A"
  32   1.0000      -5.499994      -149.6624   18-A'
  33   1.0000      -5.499682      -149.6540   16-A"
  34   1.0000      -5.499682      -149.6540   19-A'
  35   1.0000      -5.499613      -149.6521   17-A"
  36   1.0000      -5.499613      -149.6521   20-A'
  37   1.0000      -3.991660      -108.6186   21-A'
  38   1.0000      -2.506184       -68.1967   22-A'
  39   1.0000      -2.504767       -68.1582   18-A"
  40   1.0000      -2.503198       -68.1155   23-A'
  41   1.0000      -0.590175       -16.0595   24-A'
  42   1.0000      -0.590056       -16.0562   25-A'
  43   1.0000      -0.503742       -13.7075   26-A'
  44   1.0000      -0.502699       -13.6791   27-A'
  45   1.0000      -0.489586       -13.3223   19-A"
  46   1.0000      -0.489353       -13.3160   20-A"
  47   1.0000      -0.406189       -11.0530   21-A"
  48   1.0000      -0.403463       -10.9788   22-A"
  49   1.0000      -0.384696       -10.4681   28-A'
  50   1.0000      -0.378045       -10.2871   29-A'
  51   1.0000      -0.321166        -8.7394   30-A'
  52   1.0000      -0.318241        -8.6598   31-A'
  53   1.0000      -0.296110        -8.0575   23-A"
  54   1.0000      -0.292047        -7.9470   24-A"
  55   1.0000      -0.229942        -6.2570   32-A'
  56   1.0000      -0.224490        -6.1087   33-A'
  57   1.0000      -0.190065        -5.1719   34-A'
  58   1.0000      -0.189287        -5.1508   35-A'
  59   1.0000      -0.175085        -4.7643   25-A"
  60   1.0000      -0.172112        -4.6834   26-A"
  61   1.0000      -0.144286        -3.9262   27-A"
  62   1.0000      -0.139983        -3.8091   28-A"
  63   1.0000      -0.132753        -3.6124   36-A'
  64   1.0000      -0.120396        -3.2761   37-A'
  65   1.0000      -0.114788        -3.1235   38-A'
  66   1.0000      -0.109871        -2.9897   39-A'
  67   1.0000      -0.085984        -2.3397   40-A'
  68   1.0000      -0.069024        -1.8783   29-A"
  69   1.0000      -0.061321        -1.6686   41-A'
  70   1.0000      -0.052079        -1.4171   30-A"
  71   1.0000      -0.037214        -1.0127   42-A'
  72   1.0000      -0.037167        -1.0114   43-A'
  73   1.0000      -0.023762        -0.6466   31-A"
  74   1.0000      -0.023025        -0.6265   44-A'
  75   1.0000      -0.018830        -0.5124   32-A"
  76   1.0000      -0.003688        -0.1004   33-A"
  77   1.0000       0.005891         0.1603   34-A"
  78   1.0000       0.009026         0.2456   45-A'
  79   1.0000       0.012347         0.3360   46-A'
  80   1.0000       0.024838         0.6759   47-A'
  81   1.0000       0.032996         0.8979   48-A'
  82   1.0000       0.041872         1.1394   35-A"
  83   1.0000       0.051956         1.4138   36-A"
  84   1.0000       0.056830         1.5464   37-A"
  85   1.0000       0.063033         1.7152   49-A'
  86   1.0000       0.090325         2.4579   50-A'
  87   0.0000       0.136962         3.7269   38-A"
  88   0.0000       0.181390         4.9359   51-A'
  89   0.0000       0.181548         4.9402   52-A'
  90   0.0000       0.197886         5.3848   53-A'
  91   0.0000       0.198132         5.3914   39-A"

MULLIKEN ATOMIC CHARGES AND SPIN POPULATIONS
--------------------------------------------
   0 Cu:    0.140433    0.375489
   1 S :   -0.420684    0.162873
   2 C :    0.026518   -0.007515
   3 S :   -0.421136    0.162953
   4 C :    0.026056   -0.007516
   5 S :   -0.420684    0.162873
   6 C :    0.026518   -0.007515
   7 S :   -0.421136    0.162953
   8 C :    0.026056   -0.007516
   9 C :   -0.083535   -0.001374
  10 C :   -0.083535   -0.001374
  11 C :   -0.127960   -0.001017
  12 H :    0.062354    0.001951
  13 C :   -0.127960   -0.001017
  14 H :    0.062354    0.001951
  15 H :    0.009229    0.001165
  16 H :    0.009229    0.001165
  17 C :   -0.082302   -0.001321
  18 C :   -0.082302   -0.001321
  19 C :   -0.126463   -0.001041
  20 H :    0.061924    0.001919
  21 C :   -0.126463   -0.001041
  22 H :    0.061924    0.001919
  23 H :    0.005780    0.001178
  24 H :    0.005780    0.001178
Sum of atomic charges         :   -2.0000000

LOEWDIN ATOMIC CHARGES AND SPIN POPULATIONS
-------------------------------------------
   0 Cu:   -0.893260    0.442157
   1 S :    0.010346    0.124060
   2 C :   -0.038878    0.005115
   3 S :    0.010244    0.124111
   4 C :   -0.038779    0.005121
   5 S :    0.010346    0.124060
   6 C :   -0.038878    0.005115
   7 S :    0.010244    0.124111
   8 C :   -0.038779    0.005121
   9 C :    0.299658    0.003998
  10 C :    0.299658    0.003998
  11 C :    0.292547   -0.000201
  12 H :   -0.444210    0.006213
  13 C :    0.292547   -0.000201
  14 H :   -0.444210    0.006213
  15 H :   -0.396010    0.000247
  16 H :   -0.396010    0.000247
  17 C :    0.298455    0.004015
  18 C :    0.298455    0.004015
  19 C :    0.289327   -0.000214
  20 H :   -0.443712    0.006200
  21 C :    0.289327   -0.000214
  22 H :   -0.443712    0.006200
  23 H :   -0.392358    0.000254
  24 H :   -0.392358    0.000254

  Mayer bond orders larger than 0.100000
B(  0-Cu,  1-S ) :   0.7010 B(  0-Cu,  3-S ) :   0.7012 B(  0-Cu,  5-S ) :   0.7010
B(  0-Cu,  7-S ) :   0.7012 B(  1-S ,  2-C ) :   1.1861 B(  2-C ,  6-C ) :   1.2412
B(  2-C , 17-C ) :   1.3188 B(  3-S ,  4-C ) :   1.1858 B(  4-C ,  8-C ) :   1.2417
B(  4-C , 10-C ) :   1.3187 B(  5-S ,  6-C ) :   1.1861 B(  6-C , 18-C ) :   1.3188
B(  7-S ,  8-C ) :   1.1858 B(  8-C ,  9-C ) :   1.3187 B(  9-C , 13-C ) :   1.3612
B(  9-C , 14-H ) :   0.9714 B( 10-C , 11-C ) :   1.3612 B( 10-C , 12-H ) :   0.9714
B( 11-C , 13-C ) :   1.3366 B( 11-C , 15-H ) :   1.0013 B( 13-C , 16-H ) :   1.0013
B( 17-C , 19-C ) :   1.3610 B( 17-C , 20-H ) :   0.9716 B( 18-C , 21-C ) :   1.3610
B( 18-C , 22-H ) :   0.9716 B( 19-C , 21-C ) :   1.3362 B( 19-C , 23-H ) :   1.0031
B( 21-C , 24-H ) :   1.0031

FINAL SINGLE POINT ENERGY     -3686.915366423956

DIPOLE MOMENT
-------------
                                X             Y             Z
Electronic contribution:      0.97630       0.03945       0.00000
Nuclear contribution   :     -1.25563      -0.03031      -0.00000
                        -----------------------------------------
Total Dipole Moment    :     -0.27933       0.00915       0.00000
                        -----------------------------------------
Magnitude (a.u.)       :      0.27948
Magnitude (Debye)      :      0.71038

Rotational constants in cm-1:     0.033401     0.004803     0.004200
Rotational constants in MHz :  1001.337902   144.004780   125.919615

                             ****ORCA TERMINATED NORMALLY****
TOTAL RUN TIME: 0 days 7 hours 15 minutes 12 seconds 50 msec
