                         Program Version 5.0.4 -  RELEASE  -
|  1> ! RIJCOSX nofrozencore ReducedPop printbasis
|  2> ! M06L ano-rcc-dzp autoaux
|  3>
|  4> %maxcore 5000
|  5> %basis
|  6> PCDTrimBas overlap
|  7> PCDTrimAuxJ Coulomb
|  8> PCDTrimAuxJK Coulomb
|  9> PCDTrimAuxC Coulomb
| 10> PCDThresh -1
| 11> end
| 12>
| 13> %basis
| 14> newgto Cu "ano-rcc-tzp" end
| 15> newgto S "ano-rcc-tzp" end
| 16> end
| 17>
| 18> %pal
| 19> nprocs 12
| 20> end
| 21>
| 22> % sym SymThresh 1e-2 end
| 23> * xyz -2 2
| 24> Cu -6.112899406477776e-06 -8.03483193108888e-07 -5.097732398299776e-06
| 25> S 1.014524202380903 -1.333265780601331 1.6016808286743387
| 26> C 2.2962419158479443 -0.34402989873528406 2.2476641576686127
| 27> S -1.5252661955362008 -1.6670528851482107 -0.5163504079232923
| 28> C -2.520490751717014 -0.9775009047924286 -1.7689716381649492
| 29> S 1.5252641651973635 1.6670980066529084 0.5163253294955504
| 30> C 2.5211531698147285 0.9772321285781006 1.7697073892168902
| 31> S -1.0145428030775623 1.3332179473408565 -1.6016729550934412
| 32> C -2.295459160686466 0.34450315367594947 -2.247202218150585
| 33> C -3.1318837181844654 0.8478443547848097 -3.260700497526808
| 34> C -3.570536619580053 -1.72880455001305 -2.328656447563921
| 35> C -4.3796303802717835 -1.2033080353908128 -3.328926852051924
| 36> H -3.7148247060410053 -2.6226788773265475 -1.9982068622936722
| 37> C -4.161219425996733 0.0808034139518165 -3.7936036878096737
| 38> H -2.971581119070898 1.7436012362908657 -3.5776805067008586
| 39> H -5.264301965544717 -1.8762137547978375 -3.779894257899609
| 40> H -4.850204397895244 0.5454061663768955 -4.654203722193271
| 41> C 3.1359097022402334 -0.8202264878379788 3.2501010930770367
| 42> C 3.5650868539594565 1.701090317104015 2.338021746808704
| 43> C 4.176621022703454 -0.09289117190970693 3.813718493959248
| 44> H 2.914880832685901 -2.073744414291944 3.6966549044224184
| 45> C 4.400181296720105 1.2202457775541875 3.3387298624844965
| 46> H 3.770318128370211 2.9514942198810763 1.8788284284626813
| 47> H 4.66468875936443 -0.4180353344745474 4.421308428110268
| 48> H 5.023413912204765 1.6912211873177012 3.6580100367707193
| 49> *
| 50>
| 51> % eprnmr
| 52> gtensor true
| 53> Nuclei = all H {aiso,adip,aorb,fgrad,rho}
| 54> Nuclei = all Cu {aiso,adip,aorb,fgrad,rho}
| 55> end
| 56>
| 57>                          ****END OF INPUT****

CARTESIAN COORDINATES (ANGSTROEM)
---------------------------------
  Cu     0.000000    0.000000   -0.000008
  S     -1.615629    0.000000    1.661920
  C     -0.711471    0.000000    3.152281
  S     -1.615579    0.000000   -1.661934
  C     -0.711871    0.000000   -3.151338
  S      1.615629    0.000000    1.661920
  C      0.711471    0.000000    3.152281
  S      1.615579    0.000000   -1.661934
  C      0.711871    0.000000   -3.151338
  C      1.387465    0.000000   -4.385757
  C     -1.387465    0.000000   -4.385757
  C     -0.691479    0.000000   -5.588752
  H     -2.351146    0.000000   -4.375252
  C      0.691479    0.000000   -5.588752
  H      2.351146    0.000000   -4.375252
  H     -1.303853    0.000000   -6.618314
  H      1.303853    0.000000   -6.618314
  C     -1.357675    0.000000    4.384814
  C      1.357675    0.000000    4.384814
  C     -0.707093    0.000000    5.612263
  H     -2.705979    0.000000    4.374595
  C      0.707093    0.000000    5.612263
  H      2.705979    0.000000    4.374595
  H     -1.135812    0.000000    6.339474
  H      1.135812    0.000000    6.339474

 Total Charge           Charge          ....   -2
 Multiplicity           Mult            ....    2
 Number of Electrons    NEL             ....  175
 Basis Dimension        Dim             ....  475

ORBITAL ENERGIES
----------------
                 SPIN UP ORBITALS
  NO   OCC          E(Eh)            E(eV)    Irrep
   0   1.0000    -318.182172     -8658.1771    1-A1
   1   1.0000     -88.016385     -2395.0476    1-B1
   2   1.0000     -88.016374     -2395.0473    2-A1
   3   1.0000     -88.014688     -2395.0014    2-B1
   4   1.0000     -88.014677     -2395.0011    3-A1
   5   1.0000     -38.027412     -1034.7785    4-A1
   6   1.0000     -33.530547      -912.4126    3-B1
   7   1.0000     -33.529699      -912.3895    5-A1
   8   1.0000     -33.515922      -912.0146    1-B2
   9   1.0000      -9.839105      -267.7356    4-B1
  10   1.0000      -9.839101      -267.7355    6-A1
  11   1.0000      -9.835852      -267.6471    7-A1
  12   1.0000      -9.835523      -267.6382    5-B1
  13   1.0000      -9.834810      -267.6188    8-A1
  14   1.0000      -9.834341      -267.6060    6-B1
  15   1.0000      -9.833058      -267.5711    9-A1
  16   1.0000      -9.832728      -267.5621    7-B1
  17   1.0000      -9.806420      -266.8463    8-B1
  18   1.0000      -9.806416      -266.8461   10-A1
  19   1.0000      -9.804468      -266.7931   11-A1
  20   1.0000      -9.804105      -266.7833    9-B1
  21   1.0000      -7.584964      -206.3974   10-B1
  22   1.0000      -7.584954      -206.3971   12-A1
  23   1.0000      -7.583434      -206.3557   11-B1
  24   1.0000      -7.583424      -206.3555   13-A1
  25   1.0000      -5.508278      -149.8879   12-B1
  26   1.0000      -5.508277      -149.8878   14-A1
  27   1.0000      -5.506613      -149.8426   13-B1
  28   1.0000      -5.506613      -149.8426   15-A1
  29   1.0000      -5.502845      -149.7400   14-B1
  30   1.0000      -5.502845      -149.7400   16-A1
  31   1.0000      -5.501320      -149.6985   15-B1
  32   1.0000      -5.501320      -149.6985   17-A1
  33   1.0000      -5.500991      -149.6896    1-A2
  34   1.0000      -5.500991      -149.6896    2-B2
  35   1.0000      -5.499517      -149.6495    2-A2
  36   1.0000      -5.499516      -149.6495    3-B2
  37   1.0000      -4.025028      -109.5266   18-A1
  38   1.0000      -2.546469       -69.2929   16-B1
  39   1.0000      -2.544921       -69.2508   19-A1
  40   1.0000      -2.517509       -68.5049    4-B2
  41   1.0000      -0.594083       -16.1658   20-A1
  42   1.0000      -0.590741       -16.0749   21-A1
  43   1.0000      -0.517340       -14.0775   22-A1
  44   1.0000      -0.502195       -13.6654   23-A1
  45   1.0000      -0.496532       -13.5113   17-B1
  46   1.0000      -0.487860       -13.2754   18-B1
  47   1.0000      -0.419249       -11.4083   19-B1
  48   1.0000      -0.408309       -11.1106   20-B1
  49   1.0000      -0.397480       -10.8160   24-A1
  50   1.0000      -0.383908       -10.4467   25-A1
  51   1.0000      -0.335852        -9.1390   26-A1
  52   1.0000      -0.325928        -8.8690   21-B1
  53   1.0000      -0.304708        -8.2915   27-A1
  54   1.0000      -0.290264        -7.8985   22-B1
  55   1.0000      -0.245117        -6.6700   28-A1
  56   1.0000      -0.224249        -6.1021   29-A1
  57   1.0000      -0.193971        -5.2782   23-B1
  58   1.0000      -0.191139        -5.2011   30-A1
  59   1.0000      -0.190465        -5.1828   31-A1
  60   1.0000      -0.184357        -5.0166   24-B1
  61   1.0000      -0.138114        -3.7583   25-B1
  62   1.0000      -0.132492        -3.6053   32-A1
  63   1.0000      -0.121949        -3.3184   26-B1
  64   1.0000      -0.119222        -3.2442    5-B2
  65   1.0000      -0.117618        -3.2005    6-B2
  66   1.0000      -0.114632        -3.1193   33-A1
  67   1.0000      -0.083485        -2.2717   34-A1
  68   1.0000      -0.074570        -2.0292   27-B1
  69   1.0000      -0.064931        -1.7669   28-B1
  70   1.0000      -0.056379        -1.5341   35-A1
  71   1.0000      -0.039879        -1.0852    7-B2
  72   1.0000      -0.038371        -1.0441    8-B2
  73   1.0000      -0.032371        -0.8808   29-B1
  74   1.0000      -0.030232        -0.8226   36-A1
  75   1.0000      -0.027460        -0.7472    3-A2
  76   1.0000      -0.020594        -0.5604    4-A2
  77   1.0000      -0.003877        -0.1055    5-A2
  78   1.0000      -0.001572        -0.0428   37-A1
  79   1.0000       0.000402         0.0109    9-B2
  80   1.0000       0.017099         0.4653   38-A1
  81   1.0000       0.018268         0.4971   39-A1
  82   1.0000       0.034191         0.9304   30-B1
  83   1.0000       0.049103         1.3362    6-A2
  84   1.0000       0.051371         1.3979    7-A2
  85   1.0000       0.061225         1.6660   10-B2
  86   1.0000       0.086414         2.3514   11-B2
  87   1.0000       0.104432         2.8418   31-B1
  88   0.0000       0.177973         4.8429   40-A1
  89   0.0000       0.184412         5.0181   41-A1
  90   0.0000       0.195123         5.3096   32-B1
  91   0.0000       0.197354         5.3703   33-B1
  92   0.0000       0.199551         5.4301   12-B2

                 SPIN DOWN ORBITALS
  NO   OCC          E(Eh)            E(eV)    Irrep
   0   1.0000    -318.181997     -8658.1723    1-A1
   1   1.0000     -88.015296     -2395.0180    1-B1
   2   1.0000     -88.015286     -2395.0177    2-A1
   3   1.0000     -88.013632     -2394.9727    2-B1
   4   1.0000     -88.013621     -2394.9724    3-A1
   5   1.0000     -38.011538     -1034.3465    4-A1
   6   1.0000     -33.515383      -911.9999    3-B1
   7   1.0000     -33.514567      -911.9777    5-A1
   8   1.0000     -33.511596      -911.8969    1-B2
   9   1.0000      -9.839044      -267.7340    4-B1
  10   1.0000      -9.839040      -267.7339    6-A1
  11   1.0000      -9.835971      -267.6504    7-A1
  12   1.0000      -9.835643      -267.6414    5-B1
  13   1.0000      -9.834790      -267.6182    8-A1
  14   1.0000      -9.834321      -267.6055    6-B1
  15   1.0000      -9.833170      -267.5742    9-A1
  16   1.0000      -9.832839      -267.5652    7-B1
  17   1.0000      -9.806365      -266.8448    8-B1
  18   1.0000      -9.806361      -266.8446   10-A1
  19   1.0000      -9.804444      -266.7925   11-A1
  20   1.0000      -9.804081      -266.7826    9-B1
  21   1.0000      -7.584215      -206.3770   10-B1
  22   1.0000      -7.584205      -206.3767   12-A1
  23   1.0000      -7.582710      -206.3360   11-B1
  24   1.0000      -7.582700      -206.3358   13-A1
  25   1.0000      -5.507345      -149.8625   12-B1
  26   1.0000      -5.507344      -149.8625   14-A1
  27   1.0000      -5.505690      -149.8175   13-B1
  28   1.0000      -5.505690      -149.8174   15-A1
  29   1.0000      -5.500536      -149.6772   14-B1
  30   1.0000      -5.500536      -149.6772   16-A1
  31   1.0000      -5.500162      -149.6670    1-A2
  32   1.0000      -5.500161      -149.6670    2-B2
  33   1.0000      -5.499108      -149.6383   15-B1
  34   1.0000      -5.499108      -149.6383   17-A1
  35   1.0000      -5.498712      -149.6276    2-A2
  36   1.0000      -5.498711      -149.6275    3-B2
  37   1.0000      -3.991305      -108.6089   18-A1
  38   1.0000      -2.505800       -68.1863    4-B2
  39   1.0000      -2.504418       -68.1487   16-B1
  40   1.0000      -2.502848       -68.1060   19-A1
  41   1.0000      -0.593777       -16.1575   20-A1
  42   1.0000      -0.590376       -16.0649   21-A1
  43   1.0000      -0.516279       -14.0487   22-A1
  44   1.0000      -0.500848       -13.6288   23-A1
  45   1.0000      -0.495601       -13.4860   17-B1
  46   1.0000      -0.486869       -13.2484   18-B1
  47   1.0000      -0.415833       -11.3154   19-B1
  48   1.0000      -0.404104       -10.9962   20-B1
  49   1.0000      -0.394064       -10.7230   24-A1
  50   1.0000      -0.381214       -10.3734   25-A1
  51   1.0000      -0.334189        -9.0937   26-A1
  52   1.0000      -0.323460        -8.8018   21-B1
  53   1.0000      -0.303094        -8.2476   27-A1
  54   1.0000      -0.288359        -7.8466   22-B1
  55   1.0000      -0.244608        -6.6561   28-A1
  56   1.0000      -0.223548        -6.0831   29-A1
  57   1.0000      -0.193492        -5.2652   23-B1
  58   1.0000      -0.190200        -5.1756   30-A1
  59   1.0000      -0.189608        -5.1595   31-A1
  60   1.0000      -0.182992        -4.9795   24-B1
  61   1.0000      -0.136687        -3.7194   25-B1
  62   1.0000      -0.131105        -3.5675   32-A1
  63   1.0000      -0.121462        -3.3051   26-B1
  64   1.0000      -0.119044        -3.2394    5-B2
  65   1.0000      -0.117440        -3.1957    6-B2
  66   1.0000      -0.113683        -3.0935   33-A1
  67   1.0000      -0.081856        -2.2274   34-A1
  68   1.0000      -0.071605        -1.9485   27-B1
  69   1.0000      -0.055003        -1.4967   35-A1
  70   1.0000      -0.052091        -1.4175   28-B1
  71   1.0000      -0.037925        -1.0320    7-B2
  72   1.0000      -0.037480        -1.0199    8-B2
  73   1.0000      -0.024440        -0.6651    3-A2
  74   1.0000      -0.023404        -0.6369   36-A1
  75   1.0000      -0.019771        -0.5380    4-A2
  76   1.0000      -0.003246        -0.0883   29-B1
  77   1.0000       0.005846         0.1591    5-A2
  78   1.0000       0.009240         0.2514   37-A1
  79   1.0000       0.012672         0.3448    9-B2
  80   1.0000       0.024711         0.6724   38-A1
  81   1.0000       0.033337         0.9071   39-A1
  82   1.0000       0.042505         1.1566   30-B1
  83   1.0000       0.051983         1.4145    6-A2
  84   1.0000       0.056971         1.5503    7-A2
  85   1.0000       0.063093         1.7169   10-B2
  86   1.0000       0.090603         2.4654   11-B2
  87   0.0000       0.137475         3.7409   31-B1
  88   0.0000       0.178981         4.8703   40-A1
  89   0.0000       0.185679         5.0526   41-A1
  90   0.0000       0.197000         5.3606   32-B1
  91   0.0000       0.198627         5.4049   33-B1

MULLIKEN ATOMIC CHARGES AND SPIN POPULATIONS
--------------------------------------------
   0 Cu:    0.140666    0.375311
   1 S :   -0.403471    0.164916
   2 C :    0.039885   -0.007768
   3 S :   -0.433555    0.161172
   4 C :    0.005157   -0.007280
   5 S :   -0.403471    0.164916
   6 C :    0.039885   -0.007768
   7 S :   -0.433555    0.161172
   8 C :    0.005157   -0.007280
   9 C :   -0.184154   -0.002228
  10 C :   -0.184154   -0.002228
  11 C :   -0.099918   -0.000981
  12 H :    0.236366    0.002523
  13 C :   -0.099918   -0.000981
  14 H :    0.236366    0.002523
  15 H :   -0.060502    0.001384
  16 H :   -0.060502    0.001384
  17 C :   -0.073045   -0.000426
  18 C :   -0.073045   -0.000426
  19 C :   -0.432104   -0.000846
  20 H :   -0.096096    0.001125
  21 C :   -0.432104   -0.000846
  22 H :   -0.096096    0.001125
  23 H :    0.431104    0.000753
  24 H :    0.431104    0.000753
Sum of atomic charges         :   -2.0000000

LOEWDIN ATOMIC CHARGES AND SPIN POPULATIONS
-------------------------------------------
   0 Cu:   -0.893864    0.442038
   1 S :   -0.003007    0.125942
   2 C :   -0.070475    0.004826
   3 S :    0.015770    0.122646
   4 C :   -0.015867    0.005345
   5 S :   -0.003007    0.125942
   6 C :   -0.070475    0.004826
   7 S :    0.015770    0.122646
   8 C :   -0.015867    0.005345
   9 C :    0.366870    0.003911
  10 C :    0.366870    0.003911
  11 C :    0.266045   -0.000183
  12 H :   -0.587479    0.005978
  13 C :    0.266045   -0.000183
  14 H :   -0.587479    0.005978
  15 H :   -0.323180    0.000466
  16 H :   -0.323180    0.000466
  17 C :    0.259463    0.003778
  18 C :    0.259463    0.003778
  19 C :    0.498955   -0.000071
  20 H :   -0.246385    0.006474
  21 C :    0.498955   -0.000071
  22 H :   -0.246385    0.006474
  23 H :   -0.713778   -0.000130
  24 H :   -0.713778   -0.000130

  Mayer bond orders larger than 0.100000
B(  0-Cu,  1-S ) :   0.7028 B(  0-Cu,  3-S ) :   0.7001 B(  0-Cu,  5-S ) :   0.7028
B(  0-Cu,  7-S ) :   0.7001 B(  1-S ,  2-C ) :   1.1833 B(  2-C ,  6-C ) :   1.2333
B(  2-C , 17-C ) :   1.3236 B(  3-S ,  4-C ) :   1.1891 B(  4-C ,  8-C ) :   1.2457
B(  4-C , 10-C ) :   1.3369 B(  5-S ,  6-C ) :   1.1833 B(  6-C , 18-C ) :   1.3236
B(  7-S ,  8-C ) :   1.1891 B(  8-C ,  9-C ) :   1.3369 B(  9-C , 13-C ) :   1.3771
B(  9-C , 14-H ) :   0.8518 B( 10-C , 11-C ) :   1.3771 B( 10-C , 12-H ) :   0.8518
B( 11-C , 13-C ) :   1.3375 B( 11-C , 15-H ) :   1.0130 B( 13-C , 16-H ) :   1.0130
B( 17-C , 19-C ) :   1.4290 B( 17-C , 20-H ) :   0.9925 B( 18-C , 21-C ) :   1.4290
B( 18-C , 22-H ) :   0.9925 B( 19-C , 21-C ) :   1.4395 B( 19-C , 23-H ) :   0.6470
B( 21-C , 24-H ) :   0.6470

FINAL SINGLE POINT ENERGY     -3686.718136505565

DIPOLE MOMENT
-------------
                                X             Y             Z
Electronic contribution:      0.00000      -0.00000       0.75125
Nuclear contribution   :      0.00000       0.00000      -0.52439
                        -----------------------------------------
Total Dipole Moment    :      0.00000      -0.00000       0.22686
                        -----------------------------------------
Magnitude (a.u.)       :      0.22686
Magnitude (Debye)      :      0.57662

Rotational constants in cm-1:     0.033380     0.004804     0.004200
Rotational constants in MHz :  1000.719918   144.031081   125.909278

                             ****ORCA TERMINATED NORMALLY****
TOTAL RUN TIME: 0 days 5 hours 49 minutes 53 seconds 736 msec
