                         Program Version 5.0.4 -  RELEASE  -
|  1> ! RIJCOSX nofrozencore ReducedPop printbasis
|  2> ! M06L ano-rcc-dzp autoaux
|  3>
|  4> %maxcore 5000
|  5> %basis
|  6> PCDTrimBas overlap
|  7> PCDTrimAuxJ Coulomb
|  8> PCDTrimAuxJK Coulomb
|  9> PCDTrimAuxC Coulomb
| 10> PCDThresh -1
| 11> end
| 12>
| 13> %basis
| 14> newgto Cu "ano-rcc-tzp" end
| 15> newgto S "ano-rcc-tzp" end
| 16> end
| 17>
| 18> %pal
| 19> nprocs 4
| 20> end
| 21>
| 22> % sym SymThresh 1e-2 end
| 23> * xyz -2 2
| 24> Cu -2.1470166494633966e-07 -6.98160827540389e-08 9.741811482769263e-07
| 25> S 0.39163768186464964 -2.2826546028116383 -0.09211504498464274
| 26> C -1.1864115331836442 -2.9869302102759394 -0.35273141841742045
| 27> S 2.220946318664634 0.4270274373046793 0.5073145340052923
| 28> C 2.2872810980924805 2.153148012215837 0.7629570958932372
| 29> S -2.2213798013261608 -0.4271683959757597 -0.5053476622669211
| 30> C -2.2834606966664253 -2.1519057048393115 -0.7802916752456769
| 31> S -0.39120462860645283 2.2827954218505533 0.09015012160856817
| 32> C 1.1825975728075375 2.985689997381897 0.37003677233541177
| 33> C 1.314367176123589 4.371401622652023 0.5456233262601274
| 34> C 3.51390710698621 2.7792085535953293 1.030954214708085
| 35> C 3.666181103895436 4.169727793999782 0.993478727689097
| 36> H 4.38890473447528 2.1485750480638055 1.153568049565816
| 37> C 2.4950728692692072 4.9550062203336065 1.0183510790316792
| 38> H 0.42787663416663146 4.985040830326516 0.4193684610014813
| 39> H 4.656398146318105 4.621908295104728 1.106221331203399
| 40> H 2.533188520821624 6.02576103550834 1.2413480042119531
| 41> C -1.3163367281144123 -4.372041439764006 -0.5366840602936926
| 42> C -3.511940346117031 -2.7785696440924217 -1.039880816319592
| 43> C -2.4911614343372146 -4.953734310937993 -1.036098711190988
| 44> H -0.42893747509313135 -4.985385791591404 -0.414555031947845
| 45> C -3.6700931829324235 -4.1709999128436435 -0.9757281729863431
| 46> H -4.387867631815319 -2.148238442199223 -1.1582764468052842
| 47> H -2.5242013758716606 -6.022839458231051 -1.2821222195675082
| 48> H -4.665370580939238 -4.624826763333731 -1.0655062676867373
| 49> *
| 50>
| 51> % eprnmr
| 52> gtensor true
| 53> Nuclei = all H {aiso,adip,aorb,fgrad,rho}
| 54> Nuclei = all Cu {aiso,adip,aorb,fgrad,rho}
| 55> end
| 56>
| 57>                          ****END OF INPUT****

CARTESIAN COORDINATES (ANGSTROEM)
---------------------------------
  Cu    -0.000000   -0.000000    0.000000
  S      0.306337    1.586354   -1.661931
  C      0.258461    0.673866   -3.151642
  S      0.308315    1.585954    1.661931
  C      0.241035    0.677393    3.151642
  S     -0.306337   -1.586354   -1.661931
  C     -0.258461   -0.673866   -3.151642
  S     -0.308315   -1.585954    1.661931
  C     -0.241035   -0.677393    3.151642
  C     -0.328130   -1.339582    4.385461
  C      0.328130    1.339582    4.385461
  C      0.029930    0.704484    5.596188
  H      0.519459    2.408058    4.375043
  C     -0.029930   -0.704484    5.596188
  H     -0.519459   -2.408058    4.375043
  H      0.008250    1.274442    6.530201
  H     -0.008250   -1.274442    6.530201
  C      0.337117    1.337763   -4.385460
  C     -0.337117   -1.337763   -4.385460
  C      0.012073    0.708099   -5.596188
  H      0.524249    2.407089   -4.375043
  C     -0.012073   -0.708099   -5.596188
  H     -0.524249   -2.407089   -4.375043
  H     -0.032743    1.282739   -6.530201
  H      0.032743   -1.282739   -6.530201

 Total Charge           Charge          ....   -2
 Multiplicity           Mult            ....    2
 Number of Electrons    NEL             ....  175
 Basis Dimension        Dim             ....  475

ORBITAL ENERGIES
----------------
                 SPIN UP ORBITALS
  NO   OCC          E(Eh)            E(eV)    Irrep
   0   1.0000    -318.180496     -8658.1315    1-A
   1   1.0000     -88.014871     -2395.0064    1-B
   2   1.0000     -88.014865     -2395.0062    2-A
   3   1.0000     -88.014628     -2394.9998    2-B
   4   1.0000     -88.014617     -2394.9995    3-A
   5   1.0000     -38.025623     -1034.7298    4-A
   6   1.0000     -33.528707      -912.3625    3-B
   7   1.0000     -33.527849      -912.3391    5-A
   8   1.0000     -33.514314      -911.9709    4-B
   9   1.0000      -9.833990      -267.5965    6-A
  10   1.0000      -9.833715      -267.5890    5-B
  11   1.0000      -9.833510      -267.5834    7-A
  12   1.0000      -9.833220      -267.5755    6-B
  13   1.0000      -9.829485      -267.4739    8-A
  14   1.0000      -9.829135      -267.4644    7-B
  15   1.0000      -9.827903      -267.4308    9-A
  16   1.0000      -9.827533      -267.4208    8-B
  17   1.0000      -9.819032      -267.1895    9-B
  18   1.0000      -9.819030      -267.1894   10-A
  19   1.0000      -9.818253      -267.1682   10-B
  20   1.0000      -9.818250      -267.1682   11-A
  21   1.0000      -7.583395      -206.3547   11-B
  22   1.0000      -7.583389      -206.3545   12-A
  23   1.0000      -7.583202      -206.3494   12-B
  24   1.0000      -7.583195      -206.3492   13-A
  25   1.0000      -5.506682      -149.8444   13-B
  26   1.0000      -5.506681      -149.8444   14-A
  27   1.0000      -5.506467      -149.8386   14-B
  28   1.0000      -5.506466      -149.8386   15-A
  29   1.0000      -5.501360      -149.6996   15-B
  30   1.0000      -5.501360      -149.6996   16-A
  31   1.0000      -5.501151      -149.6939   16-B
  32   1.0000      -5.501151      -149.6939   17-A
  33   1.0000      -5.499369      -149.6454   18-A
  34   1.0000      -5.499369      -149.6454   17-B
  35   1.0000      -5.499197      -149.6407   19-A
  36   1.0000      -5.499196      -149.6407   18-B
  37   1.0000      -4.023241      -109.4780   20-A
  38   1.0000      -2.544562       -69.2411   19-B
  39   1.0000      -2.543011       -69.1989   21-A
  40   1.0000      -2.516007       -68.4640   20-B
  41   1.0000      -0.587202       -15.9786   22-A
  42   1.0000      -0.586463       -15.9585   23-A
  43   1.0000      -0.501468       -13.6456   24-A
  44   1.0000      -0.499980       -13.6052   25-A
  45   1.0000      -0.488961       -13.3053   21-B
  46   1.0000      -0.488597       -13.2954   22-B
  47   1.0000      -0.408061       -11.1039   23-B
  48   1.0000      -0.405398       -11.0314   24-B
  49   1.0000      -0.385752       -10.4969   26-A
  50   1.0000      -0.378970       -10.3123   27-A
  51   1.0000      -0.318167        -8.6578   28-A
  52   1.0000      -0.315315        -8.5801   29-A
  53   1.0000      -0.300626        -8.1805   25-B
  54   1.0000      -0.297202        -8.0873   26-B
  55   1.0000      -0.230609        -6.2752   30-A
  56   1.0000      -0.225199        -6.1280   31-A
  57   1.0000      -0.185681        -5.0526   32-A
  58   1.0000      -0.184107        -5.0098   33-A
  59   1.0000      -0.179874        -4.8946   27-B
  60   1.0000      -0.176578        -4.8049   28-B
  61   1.0000      -0.149189        -4.0596   29-B
  62   1.0000      -0.146892        -3.9971   30-B
  63   1.0000      -0.130319        -3.5462   34-A
  64   1.0000      -0.113676        -3.0933   31-B
  65   1.0000      -0.113287        -3.0827   35-A
  66   1.0000      -0.112712        -3.0670   32-B
  67   1.0000      -0.084672        -2.3041   36-A
  68   1.0000      -0.072585        -1.9751   33-B
  69   1.0000      -0.067019        -1.8237   34-B
  70   1.0000      -0.059799        -1.6272   37-A
  71   1.0000      -0.034701        -0.9443   35-B
  72   1.0000      -0.031936        -0.8690   36-B
  73   1.0000      -0.031481        -0.8566   38-A
  74   1.0000      -0.030355        -0.8260   37-B
  75   1.0000      -0.022848        -0.6217   39-A
  76   1.0000      -0.018735        -0.5098   40-A
  77   1.0000      -0.001706        -0.0464   41-A
  78   1.0000       0.000737         0.0201   42-A
  79   1.0000       0.003383         0.0921   38-B
  80   1.0000       0.019454         0.5294   43-A
  81   1.0000       0.020642         0.5617   44-A
  82   1.0000       0.035161         0.9568   39-B
  83   1.0000       0.051378         1.3981   45-A
  84   1.0000       0.053244         1.4488   46-A
  85   1.0000       0.064620         1.7584   40-B
  86   1.0000       0.088259         2.4016   41-B
  87   1.0000       0.106519         2.8985   42-B
  88   0.0000       0.180087         4.9004   47-A
  89   0.0000       0.180622         4.9150   48-A
  90   0.0000       0.193609         5.2684   49-A
  91   0.0000       0.195349         5.3157   43-B
  92   0.0000       0.195891         5.3305   44-B

                 SPIN DOWN ORBITALS
  NO   OCC          E(Eh)            E(eV)    Irrep
   0   1.0000    -318.180323     -8658.1268    1-A
   1   1.0000     -88.013798     -2394.9772    1-B
   2   1.0000     -88.013793     -2394.9771    2-A
   3   1.0000     -88.013558     -2394.9707    2-B
   4   1.0000     -88.013547     -2394.9704    3-A
   5   1.0000     -38.009877     -1034.3013    4-A
   6   1.0000     -33.513666      -911.9532    3-B
   7   1.0000     -33.512843      -911.9308    5-A
   8   1.0000     -33.510012      -911.8538    4-B
   9   1.0000      -9.834096      -267.5993    6-A
  10   1.0000      -9.833819      -267.5918    5-B
  11   1.0000      -9.833617      -267.5863    7-A
  12   1.0000      -9.833327      -267.5784    6-B
  13   1.0000      -9.829463      -267.4733    8-A
  14   1.0000      -9.829113      -267.4638    7-B
  15   1.0000      -9.827881      -267.4302    9-A
  16   1.0000      -9.827511      -267.4202    8-B
  17   1.0000      -9.818970      -267.1878    9-B
  18   1.0000      -9.818968      -267.1877   10-A
  19   1.0000      -9.818191      -267.1666   10-B
  20   1.0000      -9.818188      -267.1665   11-A
  21   1.0000      -7.582663      -206.3347   11-B
  22   1.0000      -7.582656      -206.3346   12-A
  23   1.0000      -7.582471      -206.3295   12-B
  24   1.0000      -7.582464      -206.3293   13-A
  25   1.0000      -5.505761      -149.8194   13-B
  26   1.0000      -5.505761      -149.8194   14-A
  27   1.0000      -5.505545      -149.8135   14-B
  28   1.0000      -5.505544      -149.8135   15-A
  29   1.0000      -5.499122      -149.6387   15-B
  30   1.0000      -5.499122      -149.6387   16-A
  31   1.0000      -5.498920      -149.6332   16-B
  32   1.0000      -5.498920      -149.6332   17-A
  33   1.0000      -5.498532      -149.6227   18-A
  34   1.0000      -5.498531      -149.6226   17-B
  35   1.0000      -5.498365      -149.6181   19-A
  36   1.0000      -5.498365      -149.6181   18-B
  37   1.0000      -3.989837      -108.5690   20-A
  38   1.0000      -2.504394       -68.1480   19-B
  39   1.0000      -2.502893       -68.1072   20-B
  40   1.0000      -2.501328       -68.0646   21-A
  41   1.0000      -0.586813       -15.9680   22-A
  42   1.0000      -0.586068       -15.9477   23-A
  43   1.0000      -0.500111       -13.6087   24-A
  44   1.0000      -0.498669       -13.5695   25-A
  45   1.0000      -0.487901       -13.2764   21-B
  46   1.0000      -0.487548       -13.2668   22-B
  47   1.0000      -0.404104       -10.9962   23-B
  48   1.0000      -0.401350       -10.9213   24-B
  49   1.0000      -0.382520       -10.4089   26-A
  50   1.0000      -0.375785       -10.2256   27-A
  51   1.0000      -0.316989        -8.6257   28-A
  52   1.0000      -0.313862        -8.5406   29-A
  53   1.0000      -0.298842        -8.1319   25-B
  54   1.0000      -0.295001        -8.0274   26-B
  55   1.0000      -0.230023        -6.2592   30-A
  56   1.0000      -0.224481        -6.1084   31-A
  57   1.0000      -0.184736        -5.0269   32-A
  58   1.0000      -0.183207        -4.9853   33-A
  59   1.0000      -0.179309        -4.8792   27-B
  60   1.0000      -0.175645        -4.7796   28-B
  61   1.0000      -0.148599        -4.0436   29-B
  62   1.0000      -0.145704        -3.9648   30-B
  63   1.0000      -0.129082        -3.5125   34-A
  64   1.0000      -0.113403        -3.0858   31-B
  65   1.0000      -0.112408        -3.0588   32-B
  66   1.0000      -0.112384        -3.0581   35-A
  67   1.0000      -0.083189        -2.2637   36-A
  68   1.0000      -0.071054        -1.9335   33-B
  69   1.0000      -0.058114        -1.5814   37-A
  70   1.0000      -0.053253        -1.4491   34-B
  71   1.0000      -0.031940        -0.8691   35-B
  72   1.0000      -0.030380        -0.8267   36-B
  73   1.0000      -0.026521        -0.7217   38-A
  74   1.0000      -0.017871        -0.4863   39-A
  75   1.0000      -0.017171        -0.4672   40-A
  76   1.0000      -0.002081        -0.0566   37-B
  77   1.0000       0.007917         0.2154   41-A
  78   1.0000       0.011434         0.3111   42-A
  79   1.0000       0.015523         0.4224   38-B
  80   1.0000       0.027102         0.7375   43-A
  81   1.0000       0.034741         0.9454   44-A
  82   1.0000       0.043329         1.1790   39-B
  83   1.0000       0.054286         1.4772   45-A
  84   1.0000       0.058807         1.6002   46-A
  85   1.0000       0.066538         1.8106   40-B
  86   1.0000       0.092897         2.5278   41-B
  87   0.0000       0.138805         3.7771   42-B
  88   0.0000       0.181132         4.9289   47-A
  89   0.0000       0.181722         4.9449   48-A
  90   0.0000       0.194150         5.2831   49-A
  91   0.0000       0.196532         5.3479   43-B

MULLIKEN ATOMIC CHARGES AND SPIN POPULATIONS
--------------------------------------------
   0 Cu:    0.142250    0.371899
   1 S :   -0.413647    0.163389
   2 C :    0.006739   -0.006494
   3 S :   -0.416783    0.162935
   4 C :    0.011128   -0.006719
   5 S :   -0.413647    0.163389
   6 C :    0.006739   -0.006494
   7 S :   -0.416783    0.162935
   8 C :    0.011128   -0.006719
   9 C :   -0.080507   -0.001672
  10 C :   -0.080507   -0.001672
  11 C :   -0.146082   -0.000958
  12 H :    0.069153    0.001963
  13 C :   -0.146082   -0.000958
  14 H :    0.069153    0.001963
  15 H :    0.027413    0.001193
  16 H :    0.027413    0.001193
  17 C :   -0.077229   -0.001722
  18 C :   -0.077229   -0.001722
  19 C :   -0.147770   -0.001030
  20 H :    0.070608    0.001944
  21 C :   -0.147770   -0.001030
  22 H :    0.070608    0.001944
  23 H :    0.025851    0.001223
  24 H :    0.025851    0.001223
Sum of atomic charges         :   -2.0000000

LOEWDIN ATOMIC CHARGES AND SPIN POPULATIONS
-------------------------------------------
   0 Cu:   -0.896468    0.438761
   1 S :    0.004090    0.124843
   2 C :   -0.032577    0.005540
   3 S :    0.005245    0.124415
   4 C :   -0.034161    0.005446
   5 S :    0.004090    0.124843
   6 C :   -0.032577    0.005540
   7 S :    0.005245    0.124415
   8 C :   -0.034161    0.005446
   9 C :    0.304422    0.003963
  10 C :    0.304422    0.003963
  11 C :    0.313570   -0.000171
  12 H :   -0.451088    0.006163
  13 C :    0.313570   -0.000171
  14 H :   -0.451088    0.006163
  15 H :   -0.414106    0.000256
  16 H :   -0.414106    0.000256
  17 C :    0.303655    0.003968
  18 C :    0.303655    0.003968
  19 C :    0.313985   -0.000221
  20 H :   -0.452401    0.006153
  21 C :    0.313985   -0.000221
  22 H :   -0.452401    0.006153
  23 H :   -0.412400    0.000264
  24 H :   -0.412400    0.000264

  Mayer bond orders larger than 0.100000
B(  0-Cu,  1-S ) :   0.6996 B(  0-Cu,  3-S ) :   0.6998 B(  0-Cu,  5-S ) :   0.6996
B(  0-Cu,  7-S ) :   0.6998 B(  1-S ,  2-C ) :   1.1843 B(  2-C ,  6-C ) :   1.2465
B(  2-C , 17-C ) :   1.3185 B(  3-S ,  4-C ) :   1.1846 B(  4-C ,  8-C ) :   1.2463
B(  4-C , 10-C ) :   1.3183 B(  5-S ,  6-C ) :   1.1843 B(  6-C , 18-C ) :   1.3185
B(  7-S ,  8-C ) :   1.1846 B(  8-C ,  9-C ) :   1.3183 B(  9-C , 13-C ) :   1.3684
B(  9-C , 14-H ) :   0.9665 B( 10-C , 11-C ) :   1.3684 B( 10-C , 12-H ) :   0.9665
B( 11-C , 13-C ) :   1.3293 B( 11-C , 15-H ) :   0.9907 B( 13-C , 16-H ) :   0.9907
B( 17-C , 19-C ) :   1.3700 B( 17-C , 20-H ) :   0.9656 B( 18-C , 21-C ) :   1.3700
B( 18-C , 22-H ) :   0.9656 B( 19-C , 21-C ) :   1.3256 B( 19-C , 23-H ) :   0.9915
B( 21-C , 24-H ) :   0.9915

FINAL SINGLE POINT ENERGY     -3686.892182633773

DIPOLE MOMENT
-------------
                                X             Y             Z
Electronic contribution:      0.00000       0.00000      -0.00145
Nuclear contribution   :     -0.00000       0.00000      -0.00000
                        -----------------------------------------
Total Dipole Moment    :      0.00000       0.00000      -0.00145
                        -----------------------------------------
Magnitude (a.u.)       :      0.00145
Magnitude (Debye)      :      0.00368

Rotational constants in cm-1:     0.033306     0.004802     0.004200
Rotational constants in MHz :   998.479215   143.945512   125.919615

                             ****ORCA TERMINATED NORMALLY****
TOTAL RUN TIME: 0 days 5 hours 36 minutes 32 seconds 401 msec
