                         Program Version 5.0.4 -  RELEASE  -
|  1> ! RIJCOSX nofrozencore ReducedPop printbasis
|  2> ! M06L ano-rcc-dzp autoaux
|  3>
|  4> %maxcore 5000
|  5> %basis
|  6> PCDTrimBas overlap
|  7> PCDTrimAuxJ Coulomb
|  8> PCDTrimAuxJK Coulomb
|  9> PCDTrimAuxC Coulomb
| 10> PCDThresh -1
| 11> end
| 12>
| 13> %basis
| 14> newgto Cu "ano-rcc-tzp" end
| 15> newgto S "ano-rcc-tzp" end
| 16> end
| 17>
| 18> %pal
| 19> nprocs 12
| 20> end
| 21>
| 22> % sym SymThresh 1e-2 end
| 23> * xyz -2 2
| 24> Cu -3.27708196383366e-05 5.13754184834594e-05 -2.7640108322924085e-06
| 25> S 1.3156451785176484 0.9280655481125377 1.6673154849004552
| 26> C 0.5077647423939584 0.5017579648509694 3.1511734788335932
| 27> S 1.4075940641732798 0.8110103294277838 -1.6532128162700608
| 28> C 0.6977516352916923 0.2552937671019744 -3.1444713493424694
| 29> S -1.4081570775991974 -0.8101276828938385 1.6531653296577289
| 30> C -0.69220101056213 -0.26399558388510724 3.144939509341145
| 31> S -1.3162087291701174 -0.9271820593586172 -1.66736301682444
| 32> C -0.5022544096557549 -0.5103966151359668 -3.1507087172088912
| 33> C -1.0674179345752672 -0.8533060097440791 -4.389381036650579
| 34> C 1.2559638979169037 0.6292159380470578 -4.377304928010149
| 35> C 0.7596448490321581 0.14968927381956884 -5.586026317796066
| 36> H 2.3572980015488794 0.9204520531166008 -4.346386808397993
| 37> C -0.41438806834079506 -0.5997190871031365 -5.592118252209439
| 38> H -1.79489737984379 -1.7308108158139814 -4.367903169158084
| 39> H 1.157513806787663 0.5643214583346972 -6.5247089118765995
| 40> H -0.9520330002882286 -0.7799926650723099 -6.53573590554496
| 41> C 1.0504330079879782 0.8799336006343031 4.3879474644663965
| 42> C -1.272887099577367 -0.6026851307664539 4.375878564592663
| 43> C 0.42358323799538145 0.5853036500086628 5.592893806461989
| 44> H 1.8885698130339421 1.583958814288876 4.3758038449081
| 45> C -0.7505372473054578 -0.16396742905809486 5.586794486249178
| 46> H -2.2642944434785757 -1.0662554549288983 4.354232070103339
| 47> H 0.9042996524833934 0.8548269744645104 6.531709833621229
| 48> H -1.204422511836025 -0.49077995660433454 6.520752393340207
| 49> *
| 50>
| 51> % eprnmr
| 52> gtensor true
| 53> Nuclei = all H {aiso,adip,aorb,fgrad,rho}
| 54> Nuclei = all Cu {aiso,adip,aorb,fgrad,rho}
| 55> end
| 56>
| 57>                          ****END OF INPUT****

CARTESIAN COORDINATES (ANGSTROEM)
---------------------------------
  Cu     0.000061   -0.000003   -0.000000
  S      0.072267    1.660359    1.615597
  C      0.145413    3.148293    0.711747
  S     -0.071220   -1.660405    1.615597
  C     -0.155697   -3.147841    0.711747
  S      0.072267    1.660359   -1.615597
  C      0.145413    3.148293   -0.711747
  S     -0.071220   -1.660405   -1.615597
  C     -0.155697   -3.147841   -0.711747
  C     -0.139025   -4.383584   -1.378053
  C     -0.139025   -4.383584    1.378053
  C     -0.274718   -5.589516    0.696420
  H     -0.486724   -4.357873    2.463249
  C     -0.274718   -5.589516   -0.696420
  H     -0.486724   -4.357873   -2.463249
  H     -0.137024   -6.530483    1.250748
  H     -0.137024   -6.530483   -1.250748
  C      0.170553    4.382198    1.378053
  C      0.170553    4.382198   -1.378053
  C      0.257700    5.590264    0.696420
  H      0.313151    4.365503    2.463249
  C      0.257700    5.590264   -0.696420
  H      0.313151    4.365503   -2.463249
  H      0.225025    6.526615    1.250748
  H      0.225025    6.526615   -1.250748

 Total Charge           Charge          ....   -2
 Multiplicity           Mult            ....    2
 Number of Electrons    NEL             ....  175
 Basis Dimension        Dim             ....  475

ORBITAL ENERGIES
----------------
                 SPIN UP ORBITALS
  NO   OCC          E(Eh)            E(eV)    Irrep
   0   1.0000    -318.182785     -8658.1937    1-A'
   1   1.0000     -88.016479     -2395.0502    1-A"
   2   1.0000     -88.016470     -2395.0499    2-A'
   3   1.0000     -88.015628     -2395.0270    2-A"
   4   1.0000     -88.015616     -2395.0267    3-A'
   5   1.0000     -38.028012     -1034.7948    4-A'
   6   1.0000     -33.531138      -912.4287    3-A"
   7   1.0000     -33.530300      -912.4058    5-A'
   8   1.0000     -33.516546      -912.0316    6-A'
   9   1.0000      -9.835213      -267.6297    7-A'
  10   1.0000      -9.834883      -267.6208    4-A"
  11   1.0000      -9.833761      -267.5902    8-A'
  12   1.0000      -9.833431      -267.5813    5-A"
  13   1.0000      -9.825126      -267.3553    9-A'
  14   1.0000      -9.824699      -267.3437    6-A"
  15   1.0000      -9.824646      -267.3422   10-A'
  16   1.0000      -9.824216      -267.3305    7-A"
  17   1.0000      -9.820891      -267.2400    8-A"
  18   1.0000      -9.820887      -267.2399   11-A'
  19   1.0000      -9.817891      -267.1584    9-A"
  20   1.0000      -9.817886      -267.1583   12-A'
  21   1.0000      -7.585137      -206.4021   10-A"
  22   1.0000      -7.585128      -206.4018   13-A'
  23   1.0000      -7.584322      -206.3799   11-A"
  24   1.0000      -7.584312      -206.3796   14-A'
  25   1.0000      -5.508345      -149.8897   12-A"
  26   1.0000      -5.508344      -149.8897   15-A'
  27   1.0000      -5.507522      -149.8673   13-A"
  28   1.0000      -5.507521      -149.8673   16-A'
  29   1.0000      -5.503004      -149.7443   14-A"
  30   1.0000      -5.503003      -149.7443   17-A'
  31   1.0000      -5.502222      -149.7231   15-A"
  32   1.0000      -5.502222      -149.7231   18-A'
  33   1.0000      -5.501256      -149.6968   16-A"
  34   1.0000      -5.501256      -149.6968   19-A'
  35   1.0000      -5.500399      -149.6735   17-A"
  36   1.0000      -5.500399      -149.6735   20-A'
  37   1.0000      -4.025624      -109.5428   21-A'
  38   1.0000      -2.547044       -69.3086   18-A"
  39   1.0000      -2.545514       -69.2670   22-A'
  40   1.0000      -2.518135       -68.5219   23-A'
  41   1.0000      -0.590383       -16.0651   24-A'
  42   1.0000      -0.590263       -16.0619   25-A'
  43   1.0000      -0.505577       -13.7574   26-A'
  44   1.0000      -0.504474       -13.7274   27-A'
  45   1.0000      -0.490474       -13.3465   19-A"
  46   1.0000      -0.488760       -13.2998   20-A"
  47   1.0000      -0.410493       -11.1701   21-A"
  48   1.0000      -0.407863       -11.0985   22-A"
  49   1.0000      -0.388568       -10.5735   28-A'
  50   1.0000      -0.381805       -10.3894   29-A'
  51   1.0000      -0.320946        -8.7334   30-A'
  52   1.0000      -0.315641        -8.5890   31-A'
  53   1.0000      -0.299930        -8.1615   23-A"
  54   1.0000      -0.295931        -8.0527   24-A"
  55   1.0000      -0.231370        -6.2959   32-A'
  56   1.0000      -0.224151        -6.0994   33-A'
  57   1.0000      -0.190685        -5.1888   34-A'
  58   1.0000      -0.189649        -5.1606   35-A'
  59   1.0000      -0.175520        -4.7761   25-A"
  60   1.0000      -0.167190        -4.5495   26-A"
  61   1.0000      -0.145075        -3.9477   27-A"
  62   1.0000      -0.138467        -3.7679   28-A"
  63   1.0000      -0.136184        -3.7058   36-A'
  64   1.0000      -0.127328        -3.4648   37-A'
  65   1.0000      -0.118565        -3.2263   38-A'
  66   1.0000      -0.105005        -2.8573   39-A'
  67   1.0000      -0.080042        -2.1780   40-A'
  68   1.0000      -0.070445        -1.9169   29-A"
  69   1.0000      -0.066344        -1.8053   30-A"
  70   1.0000      -0.059963        -1.6317   41-A'
  71   1.0000      -0.039315        -1.0698   42-A'
  72   1.0000      -0.036979        -1.0063   43-A'
  73   1.0000      -0.033441        -0.9100   31-A"
  74   1.0000      -0.030086        -0.8187   44-A'
  75   1.0000      -0.026571        -0.7230   32-A"
  76   1.0000      -0.019898        -0.5414   33-A"
  77   1.0000      -0.004027        -0.1096   34-A"
  78   1.0000      -0.001975        -0.0537   45-A'
  79   1.0000      -0.000094        -0.0026   46-A'
  80   1.0000       0.017030         0.4634   47-A'
  81   1.0000       0.017706         0.4818   48-A'
  82   1.0000       0.033463         0.9106   35-A"
  83   1.0000       0.048418         1.3175   36-A"
  84   1.0000       0.050726         1.3803   37-A"
  85   1.0000       0.060717         1.6522   49-A'
  86   1.0000       0.085659         2.3309   50-A'
  87   1.0000       0.103822         2.8251   38-A"
  88   0.0000       0.180984         4.9248   51-A'
  89   0.0000       0.181301         4.9334   52-A'
  90   0.0000       0.188041         5.1169   53-A'
  91   0.0000       0.196542         5.3482   39-A"
  92   0.0000       0.197461         5.3732   40-A"

                 SPIN DOWN ORBITALS
  NO   OCC          E(Eh)            E(eV)    Irrep
   0   1.0000    -318.182611     -8658.1890    1-A'
   1   1.0000     -88.015406     -2395.0210    1-A"
   2   1.0000     -88.015397     -2395.0207    2-A'
   3   1.0000     -88.014556     -2394.9978    2-A"
   4   1.0000     -88.014544     -2394.9975    3-A'
   5   1.0000     -38.012138     -1034.3629    4-A'
   6   1.0000     -33.515975      -912.0161    3-A"
   7   1.0000     -33.515168      -911.9941    5-A'
   8   1.0000     -33.512217      -911.9138    6-A'
   9   1.0000      -9.835327      -267.6329    7-A'
  10   1.0000      -9.834998      -267.6239    4-A"
  11   1.0000      -9.833876      -267.5934    8-A'
  12   1.0000      -9.833545      -267.5844    5-A"
  13   1.0000      -9.825102      -267.3546    9-A'
  14   1.0000      -9.824675      -267.3430    6-A"
  15   1.0000      -9.824624      -267.3416   10-A'
  16   1.0000      -9.824194      -267.3299    7-A"
  17   1.0000      -9.820837      -267.2386    8-A"
  18   1.0000      -9.820833      -267.2385   11-A'
  19   1.0000      -9.817833      -267.1568    9-A"
  20   1.0000      -9.817828      -267.1567   12-A'
  21   1.0000      -7.584402      -206.3821   10-A"
  22   1.0000      -7.584393      -206.3818   13-A'
  23   1.0000      -7.583588      -206.3599   11-A"
  24   1.0000      -7.583579      -206.3597   14-A'
  25   1.0000      -5.507414      -149.8643   12-A"
  26   1.0000      -5.507413      -149.8643   15-A'
  27   1.0000      -5.506591      -149.8419   13-A"
  28   1.0000      -5.506590      -149.8419   16-A'
  29   1.0000      -5.500751      -149.6830   14-A"
  30   1.0000      -5.500751      -149.6830   17-A'
  31   1.0000      -5.500436      -149.6745   15-A"
  32   1.0000      -5.500436      -149.6745   18-A'
  33   1.0000      -5.499974      -149.6619   16-A"
  34   1.0000      -5.499973      -149.6619   19-A'
  35   1.0000      -5.499583      -149.6512   17-A"
  36   1.0000      -5.499582      -149.6512   20-A'
  37   1.0000      -3.991896      -108.6250   21-A'
  38   1.0000      -2.506424       -68.2033   22-A'
  39   1.0000      -2.504991       -68.1643   18-A"
  40   1.0000      -2.503435       -68.1219   23-A'
  41   1.0000      -0.590015       -16.0551   24-A'
  42   1.0000      -0.589905       -16.0521   25-A'
  43   1.0000      -0.504248       -13.7213   26-A'
  44   1.0000      -0.503218       -13.6933   27-A'
  45   1.0000      -0.489426       -13.3179   19-A"
  46   1.0000      -0.487673       -13.2703   20-A"
  47   1.0000      -0.406534       -11.0623   21-A"
  48   1.0000      -0.403809       -10.9882   22-A"
  49   1.0000      -0.385314       -10.4849   28-A'
  50   1.0000      -0.378589       -10.3019   29-A'
  51   1.0000      -0.319669        -8.6986   30-A'
  52   1.0000      -0.314240        -8.5509   31-A'
  53   1.0000      -0.298105        -8.1118   23-A"
  54   1.0000      -0.293712        -7.9923   24-A"
  55   1.0000      -0.230778        -6.2798   32-A'
  56   1.0000      -0.223506        -6.0819   33-A'
  57   1.0000      -0.189708        -5.1622   34-A'
  58   1.0000      -0.188753        -5.1362   35-A'
  59   1.0000      -0.174877        -4.7587   25-A"
  60   1.0000      -0.166268        -4.5244   26-A"
  61   1.0000      -0.144130        -3.9220   27-A"
  62   1.0000      -0.137284        -3.7357   28-A"
  63   1.0000      -0.135455        -3.6859   36-A'
  64   1.0000      -0.126728        -3.4484   37-A'
  65   1.0000      -0.118005        -3.2111   38-A'
  66   1.0000      -0.104021        -2.8305   39-A'
  67   1.0000      -0.078634        -2.1397   40-A'
  68   1.0000      -0.068987        -1.8772   29-A"
  69   1.0000      -0.058385        -1.5887   41-A'
  70   1.0000      -0.052023        -1.4156   30-A"
  71   1.0000      -0.037503        -1.0205   42-A'
  72   1.0000      -0.035926        -0.9776   43-A'
  73   1.0000      -0.023915        -0.6507   31-A"
  74   1.0000      -0.023340        -0.6351   44-A'
  75   1.0000      -0.019163        -0.5214   32-A"
  76   1.0000      -0.003853        -0.1049   33-A"
  77   1.0000       0.005520         0.1502   34-A"
  78   1.0000       0.008855         0.2410   45-A'
  79   1.0000       0.012160         0.3309   46-A'
  80   1.0000       0.024524         0.6673   47-A'
  81   1.0000       0.032763         0.8915   48-A'
  82   1.0000       0.041766         1.1365   35-A"
  83   1.0000       0.051327         1.3967   36-A"
  84   1.0000       0.056304         1.5321   37-A"
  85   1.0000       0.062570         1.7026   49-A'
  86   1.0000       0.089823         2.4442   50-A'
  87   0.0000       0.136868         3.7244   38-A"
  88   0.0000       0.182120         4.9557   51-A'
  89   0.0000       0.182394         4.9632   52-A'
  90   0.0000       0.188176         5.1205   53-A'
  91   0.0000       0.198429         5.3995   39-A"

MULLIKEN ATOMIC CHARGES AND SPIN POPULATIONS
--------------------------------------------
   0 Cu:    0.141709    0.375301
   1 S :   -0.421599    0.163335
   2 C :    0.028400   -0.007607
   3 S :   -0.412000    0.163320
   4 C :    0.048645   -0.007833
   5 S :   -0.421599    0.163335
   6 C :    0.028400   -0.007607
   7 S :   -0.412000    0.163320
   8 C :    0.048645   -0.007833
   9 C :   -0.111020   -0.001482
  10 C :   -0.111020   -0.001482
  11 C :   -0.116538   -0.000780
  12 H :    0.028202    0.001582
  13 C :   -0.116538   -0.000780
  14 H :    0.028202    0.001582
  15 H :    0.025914    0.001160
  16 H :    0.025914    0.001160
  17 C :   -0.096091   -0.001547
  18 C :   -0.096091   -0.001547
  19 C :   -0.133559   -0.000852
  20 H :    0.058003    0.001948
  21 C :   -0.133559   -0.000852
  22 H :    0.058003    0.001948
  23 H :    0.030789    0.001107
  24 H :    0.030789    0.001107
Sum of atomic charges         :   -2.0000000

LOEWDIN ATOMIC CHARGES AND SPIN POPULATIONS
-------------------------------------------
   0 Cu:   -0.893408    0.442083
   1 S :    0.009689    0.124364
   2 C :   -0.039306    0.005150
   3 S :    0.009575    0.124562
   4 C :   -0.044301    0.005093
   5 S :    0.009689    0.124364
   6 C :   -0.039306    0.005150
   7 S :    0.009575    0.124562
   8 C :   -0.044301    0.005093
   9 C :    0.278946    0.003607
  10 C :    0.278946    0.003607
  11 C :    0.294086   -0.000102
  12 H :   -0.405702    0.005888
  13 C :    0.294086   -0.000102
  14 H :   -0.405702    0.005888
  15 H :   -0.410615    0.000233
  16 H :   -0.410615    0.000233
  17 C :    0.301790    0.003856
  18 C :    0.301790    0.003856
  19 C :    0.308969   -0.000117
  20 H :   -0.439629    0.006214
  21 C :    0.308969   -0.000117
  22 H :   -0.439629    0.006214
  23 H :   -0.416798    0.000210
  24 H :   -0.416798    0.000210

  Mayer bond orders larger than 0.100000
B(  0-Cu,  1-S ) :   0.7017 B(  0-Cu,  3-S ) :   0.6995 B(  0-Cu,  5-S ) :   0.7017
B(  0-Cu,  7-S ) :   0.6995 B(  1-S ,  2-C ) :   1.1852 B(  2-C ,  6-C ) :   1.2420
B(  2-C , 17-C ) :   1.3194 B(  3-S ,  4-C ) :   1.1879 B(  4-C ,  8-C ) :   1.2321
B(  4-C , 10-C ) :   1.3234 B(  5-S ,  6-C ) :   1.1852 B(  6-C , 18-C ) :   1.3194
B(  7-S ,  8-C ) :   1.1879 B(  8-C ,  9-C ) :   1.3234 B(  9-C , 13-C ) :   1.3430
B(  9-C , 14-H ) :   0.9944 B( 10-C , 11-C ) :   1.3430 B( 10-C , 12-H ) :   0.9944
B( 11-C , 13-C ) :   1.3509 B( 11-C , 15-H ) :   0.9891 B( 13-C , 16-H ) :   0.9891
B( 17-C , 19-C ) :   1.3592 B( 17-C , 20-H ) :   0.9753 B( 18-C , 21-C ) :   1.3592
B( 18-C , 22-H ) :   0.9753 B( 19-C , 21-C ) :   1.3412 B( 19-C , 23-H ) :   0.9882
B( 21-C , 24-H ) :   0.9882

FINAL SINGLE POINT ENERGY     -3686.905442715410

DIPOLE MOMENT
-------------
                                X             Y             Z
Electronic contribution:      0.14565       0.12408      -0.00000
Nuclear contribution   :     -0.16094       0.00708      -0.00000
                        -----------------------------------------
Total Dipole Moment    :     -0.01529       0.13116      -0.00000
                        -----------------------------------------
Magnitude (a.u.)       :      0.13205
Magnitude (Debye)      :      0.33564

Rotational constants in cm-1:     0.033398     0.004803     0.004200
Rotational constants in MHz :  1001.255561   144.003077   125.919615

                             ****ORCA TERMINATED NORMALLY****
TOTAL RUN TIME: 0 days 6 hours 52 minutes 22 seconds 208 msec
