                         Program Version 5.0.4 -  RELEASE  -
|  1> ! RIJCOSX nofrozencore ReducedPop printbasis
|  2> ! M06L ano-rcc-dzp autoaux
|  3>
|  4> %maxcore 5000
|  5> %basis
|  6> PCDTrimBas overlap
|  7> PCDTrimAuxJ Coulomb
|  8> PCDTrimAuxJK Coulomb
|  9> PCDTrimAuxC Coulomb
| 10> PCDThresh -1
| 11> end
| 12>
| 13> %basis
| 14> newgto Cu "ano-rcc-tzp" end
| 15> newgto S "ano-rcc-tzp" end
| 16> end
| 17>
| 18> %pal
| 19> nprocs 12
| 20> end
| 21>
| 22> % sym SymThresh 1e-2 end
| 23> * xyz -2 2
| 24> Cu 1.9672208964570784e-06 -1.0650049557838359e-05 5.167831881952971e-06
| 25> S 0.8969732506791624 -2.030446253526205 -0.6668989676146271
| 26> C 0.7918944630973691 -3.0425184865467423 0.7486079443787986
| 27> S 0.35206221443568 0.9195084643033288 -2.0983007340615356
| 28> C -0.24134708843290165 2.551560636578633 -1.966076677228129
| 29> S -0.3520952523662201 -0.9193908165927999 2.098279438255542
| 30> C 0.24170099564564246 -2.5531110829242794 1.9666152891608264
| 31> S -0.8969793932314768 2.030540719302703 0.6668173374356383
| 32> C -0.7916977002548438 3.0410929875018824 -0.7477055759081039
| 33> C -1.2591165951362793 4.37186441861727 -0.6919495227845075
| 34> C -0.17846151997349605 3.4106301567544053 -3.0843129072106428
| 35> C -0.6468480172839967 4.739931167600981 -3.0239205889121092
| 36> H 0.14916160501501394 3.1141311429994993 -3.8041715119325223
| 37> C -1.194140809320055 5.226746534330345 -1.812322042135772
| 38> H -1.5840054386102727 4.655808042389456 0.03268739889851777
| 39> H -0.6009601907699682 5.224698997658175 -3.68786209386677
| 40> H -1.4723684073556698 5.99980901983056 -1.758730336167765
| 41> C 1.2445415332842849 -4.360354244659202 0.7257718864580527
| 42> C 0.19367547322961343 -3.425583391361704 3.052152051328068
| 43> C 1.179479702462816 -5.186490815953368 1.8156601986141552
| 44> H 1.750311829562132 -4.799976120325006 -0.4048811207732109
| 45> C 0.649481256267479 -4.715049984046839 2.98896311951856
| 46> H -0.31720968441779207 -2.9609065084000803 4.172188446078103
| 47> H 1.6315352381474368 -6.440049055436474 1.7259222812664416
| 48> H 0.5738132771399758 -5.499278476705997 4.067585537114868
| 49> *
| 50>
| 51> % eprnmr
| 52> gtensor true
| 53> Nuclei = all H {aiso,adip,aorb,fgrad,rho}
| 54> Nuclei = all Cu {aiso,adip,aorb,fgrad,rho}
| 55> end
| 56>
| 57>                          ****END OF INPUT****

CARTESIAN COORDINATES (ANGSTROEM)
---------------------------------
  Cu     0.000000    0.000000   -0.000012
  S     -1.615613    0.000000   -1.661872
  C     -0.711648    0.000000   -3.152452
  S     -1.615578    0.000000    1.661992
  C     -0.711856    0.000000    3.150777
  S      1.615613    0.000000   -1.661872
  C      0.711648    0.000000   -3.152452
  S      1.615578    0.000000    1.661992
  C      0.711856    0.000000    3.150777
  C      1.397783    0.000000    4.384462
  C     -1.397783    0.000000    4.384462
  C     -0.707900    0.000000    5.615006
  H     -2.241769    0.000000    4.377637
  C      0.707900    0.000000    5.615006
  H      2.241769    0.000000    4.377637
  H     -1.127131    0.000000    6.323639
  H      1.127131    0.000000    6.323639
  C     -1.359242    0.000000   -4.386399
  C      1.359242    0.000000   -4.386399
  C     -0.685528    0.000000   -5.578306
  H     -2.674247    0.000000   -4.372576
  C      0.685528    0.000000   -5.578306
  H      2.674247    0.000000   -4.372576
  H     -1.368138    0.000000   -6.726363
  H      1.368138    0.000000   -6.726363

 Total Charge           Charge          ....   -2
 Multiplicity           Mult            ....    2
 Number of Electrons    NEL             ....  175
 Basis Dimension        Dim             ....  475

ORBITAL ENERGIES
----------------
                 SPIN UP ORBITALS
  NO   OCC          E(Eh)            E(eV)    Irrep
   0   1.0000    -318.182421     -8658.1838    1-A1
   1   1.0000     -88.017577     -2395.0800    1-B1
   2   1.0000     -88.017567     -2395.0798    2-A1
   3   1.0000     -88.013407     -2394.9666    2-B1
   4   1.0000     -88.013396     -2394.9663    3-A1
   5   1.0000     -38.027623     -1034.7842    4-A1
   6   1.0000     -33.530771      -912.4187    3-B1
   7   1.0000     -33.529925      -912.3956    5-A1
   8   1.0000     -33.516126      -912.0202    1-B2
   9   1.0000      -9.851362      -268.0692    6-A1
  10   1.0000      -9.850846      -268.0552    4-B1
  11   1.0000      -9.841069      -267.7891    5-B1
  12   1.0000      -9.841067      -267.7891    7-A1
  13   1.0000      -9.838938      -267.7311    8-A1
  14   1.0000      -9.838612      -267.7222    6-B1
  15   1.0000      -9.829461      -267.4732    9-A1
  16   1.0000      -9.829130      -267.4642    7-B1
  17   1.0000      -9.796034      -266.5636   10-A1
  18   1.0000      -9.795674      -266.5538    8-B1
  19   1.0000      -9.791767      -266.4475    9-B1
  20   1.0000      -9.791765      -266.4475   11-A1
  21   1.0000      -7.586160      -206.4299   10-B1
  22   1.0000      -7.586150      -206.4296   12-A1
  23   1.0000      -7.582196      -206.3221   11-B1
  24   1.0000      -7.582186      -206.3218   13-A1
  25   1.0000      -5.509540      -149.9222   12-B1
  26   1.0000      -5.509540      -149.9222   14-A1
  27   1.0000      -5.505272      -149.8061   13-B1
  28   1.0000      -5.505272      -149.8061   15-A1
  29   1.0000      -5.503957      -149.7703   14-B1
  30   1.0000      -5.503957      -149.7703   16-A1
  31   1.0000      -5.502174      -149.7218    1-A2
  32   1.0000      -5.502174      -149.7218    2-B2
  33   1.0000      -5.500179      -149.6675   15-B1
  34   1.0000      -5.500178      -149.6675   17-A1
  35   1.0000      -5.498298      -149.6163    2-A2
  36   1.0000      -5.498298      -149.6163    3-B2
  37   1.0000      -4.025228      -109.5320   18-A1
  38   1.0000      -2.546677       -69.2986   16-B1
  39   1.0000      -2.545136       -69.2567   19-A1
  40   1.0000      -2.517686       -68.5097    4-B2
  41   1.0000      -0.602189       -16.3864   20-A1
  42   1.0000      -0.585575       -15.9343   21-A1
  43   1.0000      -0.510299       -13.8859   22-A1
  44   1.0000      -0.509042       -13.8517   23-A1
  45   1.0000      -0.503658       -13.7052   17-B1
  46   1.0000      -0.490084       -13.3359   18-B1
  47   1.0000      -0.417281       -11.3548   19-B1
  48   1.0000      -0.408983       -11.1290   20-B1
  49   1.0000      -0.400475       -10.8975   24-A1
  50   1.0000      -0.383878       -10.4458   25-A1
  51   1.0000      -0.345094        -9.3905   26-A1
  52   1.0000      -0.333372        -9.0715   21-B1
  53   1.0000      -0.308558        -8.3963   27-A1
  54   1.0000      -0.288622        -7.8538   22-B1
  55   1.0000      -0.251918        -6.8550   28-A1
  56   1.0000      -0.212484        -5.7820   23-B1
  57   1.0000      -0.210375        -5.7246   29-A1
  58   1.0000      -0.199364        -5.4250   30-A1
  59   1.0000      -0.182434        -4.9643   31-A1
  60   1.0000      -0.158356        -4.3091   24-B1
  61   1.0000      -0.140299        -3.8177   25-B1
  62   1.0000      -0.133417        -3.6305   32-A1
  63   1.0000      -0.130788        -3.5589   26-B1
  64   1.0000      -0.128024        -3.4837    5-B2
  65   1.0000      -0.116034        -3.1574   33-A1
  66   1.0000      -0.108761        -2.9595    6-B2
  67   1.0000      -0.084833        -2.3084   34-A1
  68   1.0000      -0.070620        -1.9217   27-B1
  69   1.0000      -0.065402        -1.7797   28-B1
  70   1.0000      -0.060686        -1.6514   35-A1
  71   1.0000      -0.045266        -1.2317    7-B2
  72   1.0000      -0.033275        -0.9055    8-B2
  73   1.0000      -0.032216        -0.8766   29-B1
  74   1.0000      -0.030298        -0.8245   36-A1
  75   1.0000      -0.029656        -0.8070    3-A2
  76   1.0000      -0.019104        -0.5198    4-A2
  77   1.0000      -0.003299        -0.0898    5-A2
  78   1.0000      -0.001718        -0.0468   37-A1
  79   1.0000       0.000415         0.0113    9-B2
  80   1.0000       0.016508         0.4492   38-A1
  81   1.0000       0.019087         0.5194   39-A1
  82   1.0000       0.033789         0.9194   30-B1
  83   1.0000       0.047434         1.2907    6-A2
  84   1.0000       0.053040         1.4433    7-A2
  85   1.0000       0.061313         1.6684   10-B2
  86   1.0000       0.086914         2.3650   11-B2
  87   1.0000       0.104023         2.8306   31-B1
  88   0.0000       0.162287         4.4161   40-A1
  89   0.0000       0.185527         5.0485   41-A1
  90   0.0000       0.189706         5.1622   32-B1
  91   0.0000       0.200121         5.4456   12-B2
  92   0.0000       0.200254         5.4492   33-B1

                 SPIN DOWN ORBITALS
  NO   OCC          E(Eh)            E(eV)    Irrep
   0   1.0000    -318.182248     -8658.1791    1-A1
   1   1.0000     -88.016523     -2395.0514    1-B1
   2   1.0000     -88.016513     -2395.0511    2-A1
   3   1.0000     -88.012324     -2394.9371    2-B1
   4   1.0000     -88.012314     -2394.9368    3-A1
   5   1.0000     -38.011766     -1034.3527    4-A1
   6   1.0000     -33.515620      -912.0064    3-B1
   7   1.0000     -33.514806      -911.9842    5-A1
   8   1.0000     -33.511812      -911.9028    1-B2
   9   1.0000      -9.851336      -268.0685    6-A1
  10   1.0000      -9.850820      -268.0544    4-B1
  11   1.0000      -9.841017      -267.7877    5-B1
  12   1.0000      -9.841015      -267.7876    7-A1
  13   1.0000      -9.839053      -267.7343    8-A1
  14   1.0000      -9.838727      -267.7254    6-B1
  15   1.0000      -9.829573      -267.4763    9-A1
  16   1.0000      -9.829241      -267.4672    7-B1
  17   1.0000      -9.796013      -266.5631   10-A1
  18   1.0000      -9.795653      -266.5533    8-B1
  19   1.0000      -9.791707      -266.4459    9-B1
  20   1.0000      -9.791704      -266.4458   11-A1
  21   1.0000      -7.585434      -206.4102   10-B1
  22   1.0000      -7.585425      -206.4099   12-A1
  23   1.0000      -7.581455      -206.3019   11-B1
  24   1.0000      -7.581446      -206.3016   13-A1
  25   1.0000      -5.508639      -149.8977   12-B1
  26   1.0000      -5.508638      -149.8977   14-A1
  27   1.0000      -5.504318      -149.7801   13-B1
  28   1.0000      -5.504318      -149.7801   15-A1
  29   1.0000      -5.501725      -149.7095   14-B1
  30   1.0000      -5.501724      -149.7095   16-A1
  31   1.0000      -5.501370      -149.6999    1-A2
  32   1.0000      -5.501369      -149.6999    2-B2
  33   1.0000      -5.497918      -149.6060   15-B1
  34   1.0000      -5.497918      -149.6060   17-A1
  35   1.0000      -5.497475      -149.5939    2-A2
  36   1.0000      -5.497475      -149.5939    3-B2
  37   1.0000      -3.991518      -108.6147   18-A1
  38   1.0000      -2.505997       -68.1916    4-B2
  39   1.0000      -2.504641       -68.1547   16-B1
  40   1.0000      -2.503076       -68.1122   19-A1
  41   1.0000      -0.601899       -16.3785   20-A1
  42   1.0000      -0.585204       -15.9242   21-A1
  43   1.0000      -0.509089       -13.8530   22-A1
  44   1.0000      -0.507770       -13.8171   23-A1
  45   1.0000      -0.502919       -13.6851   17-B1
  46   1.0000      -0.488999       -13.3063   18-B1
  47   1.0000      -0.413477       -11.2513   19-B1
  48   1.0000      -0.404970       -11.0198   20-B1
  49   1.0000      -0.398109       -10.8331   24-A1
  50   1.0000      -0.380506       -10.3541   25-A1
  51   1.0000      -0.342969        -9.3327   26-A1
  52   1.0000      -0.331379        -9.0173   21-B1
  53   1.0000      -0.307383        -8.3643   27-A1
  54   1.0000      -0.286480        -7.7955   22-B1
  55   1.0000      -0.251041        -6.8312   28-A1
  56   1.0000      -0.211368        -5.7516   23-B1
  57   1.0000      -0.209702        -5.7063   29-A1
  58   1.0000      -0.198587        -5.4038   30-A1
  59   1.0000      -0.181346        -4.9347   31-A1
  60   1.0000      -0.157329        -4.2811   24-B1
  61   1.0000      -0.139545        -3.7972   25-B1
  62   1.0000      -0.132338        -3.6011   32-A1
  63   1.0000      -0.129517        -3.5243   26-B1
  64   1.0000      -0.127892        -3.4801    5-B2
  65   1.0000      -0.114926        -3.1273   33-A1
  66   1.0000      -0.108510        -2.9527    6-B2
  67   1.0000      -0.083278        -2.2661   34-A1
  68   1.0000      -0.068915        -1.8753   27-B1
  69   1.0000      -0.059193        -1.6107   35-A1
  70   1.0000      -0.051219        -1.3937   28-B1
  71   1.0000      -0.043933        -1.1955    7-B2
  72   1.0000      -0.031666        -0.8617    8-B2
  73   1.0000      -0.027593        -0.7509    3-A2
  74   1.0000      -0.023455        -0.6382   36-A1
  75   1.0000      -0.016873        -0.4591    4-A2
  76   1.0000      -0.003533        -0.0961   29-B1
  77   1.0000       0.005977         0.1626    5-A2
  78   1.0000       0.009092         0.2474   37-A1
  79   1.0000       0.012608         0.3431    9-B2
  80   1.0000       0.024895         0.6774   38-A1
  81   1.0000       0.033286         0.9058   39-A1
  82   1.0000       0.042098         1.1456   30-B1
  83   1.0000       0.051049         1.3891    6-A2
  84   1.0000       0.057876         1.5749    7-A2
  85   1.0000       0.063209         1.7200   10-B2
  86   1.0000       0.091034         2.4772   11-B2
  87   0.0000       0.137015         3.7284   31-B1
  88   0.0000       0.163203         4.4410   40-A1
  89   0.0000       0.185706         5.0533   41-A1
  90   0.0000       0.192012         5.2249   32-B1
  91   0.0000       0.200094         5.4448   12-B2

MULLIKEN ATOMIC CHARGES AND SPIN POPULATIONS
--------------------------------------------
   0 Cu:    0.140847    0.375690
   1 S :   -0.403852    0.159337
   2 C :    0.046945   -0.007222
   3 S :   -0.443131    0.166063
   4 C :   -0.022670   -0.007622
   5 S :   -0.403852    0.159337
   6 C :    0.046945   -0.007222
   7 S :   -0.443131    0.166063
   8 C :   -0.022670   -0.007622
   9 C :   -0.415562   -0.002252
  10 C :   -0.415562   -0.002252
  11 C :   -0.538808   -0.000526
  12 H :    0.440564    0.002477
  13 C :   -0.538808   -0.000526
  14 H :    0.440564    0.002477
  15 H :    0.450803    0.000541
  16 H :    0.450803    0.000541
  17 C :   -0.000667   -0.000674
  18 C :   -0.000667   -0.000674
  19 C :   -0.022628   -0.001104
  20 H :   -0.063305    0.001374
  21 C :   -0.022628   -0.001104
  22 H :   -0.063305    0.001374
  23 H :   -0.098113    0.001764
  24 H :   -0.098113    0.001764
Sum of atomic charges         :   -2.0000000

LOEWDIN ATOMIC CHARGES AND SPIN POPULATIONS
-------------------------------------------
   0 Cu:   -0.893258    0.442196
   1 S :   -0.001901    0.121855
   2 C :   -0.073403    0.004974
   3 S :    0.021972    0.126127
   4 C :    0.017150    0.005485
   5 S :   -0.001901    0.121855
   6 C :   -0.073403    0.004974
   7 S :    0.021972    0.126127
   8 C :    0.017150    0.005485
   9 C :    0.534553    0.004218
  10 C :    0.534553    0.004218
  11 C :    0.605097   -0.000078
  12 H :   -0.731258    0.005733
  13 C :    0.605097   -0.000078
  14 H :   -0.731258    0.005733
  15 H :   -0.717090   -0.000048
  16 H :   -0.717090   -0.000048
  17 C :    0.178046    0.003544
  18 C :    0.178046    0.003544
  19 C :    0.143711   -0.000093
  20 H :   -0.278138    0.006473
  21 C :    0.143711   -0.000093
  22 H :   -0.278138    0.006473
  23 H :   -0.252110    0.000713
  24 H :   -0.252110    0.000713

  Mayer bond orders larger than 0.100000
B(  0-Cu,  1-S ) :   0.6972 B(  0-Cu,  3-S ) :   0.7060 B(  0-Cu,  5-S ) :   0.6972
B(  0-Cu,  7-S ) :   0.7060 B(  1-S ,  2-C ) :   1.1824 B(  2-C ,  6-C ) :   1.2349
B(  2-C , 17-C ) :   1.3151 B(  3-S ,  4-C ) :   1.1909 B(  4-C ,  8-C ) :   1.2486
B(  4-C , 10-C ) :   1.3718 B(  5-S ,  6-C ) :   1.1824 B(  6-C , 18-C ) :   1.3151
B(  7-S ,  8-C ) :   1.1909 B(  8-C ,  9-C ) :   1.3718 B(  9-C , 13-C ) :   1.4827
B(  9-C , 14-H ) :   0.6410 B( 10-C , 11-C ) :   1.4827 B( 10-C , 12-H ) :   0.6410
B( 11-C , 13-C ) :   1.4623 B( 11-C , 15-H ) :   0.6158 B( 13-C , 16-H ) :   0.6158
B( 17-C , 19-C ) :   1.3593 B( 17-C , 20-H ) :   0.9877 B( 18-C , 21-C ) :   1.3593
B( 18-C , 22-H ) :   0.9877 B( 19-C , 21-C ) :   1.3348 B( 19-C , 23-H ) :   0.9901
B( 21-C , 24-H ) :   0.9901

FINAL SINGLE POINT ENERGY     -3686.560713216410

DIPOLE MOMENT
-------------
                                X             Y             Z
Electronic contribution:     -0.00000       0.00000       1.50793
Nuclear contribution   :     -0.00000       0.00000      -0.74610
                        -----------------------------------------
Total Dipole Moment    :     -0.00000       0.00000       0.76183
                        -----------------------------------------
Magnitude (a.u.)       :      0.76183
Magnitude (Debye)      :      1.93641

Rotational constants in cm-1:     0.033409     0.004804     0.004200
Rotational constants in MHz :  1001.562651   144.012569   125.908459

                             ****ORCA TERMINATED NORMALLY****
TOTAL RUN TIME: 0 days 6 hours 36 minutes 39 seconds 434 msec
