                         Program Version 5.0.4 -  RELEASE  -
|  1> ! RIJCOSX nofrozencore ReducedPop printbasis
|  2> ! M06L ano-rcc-dzp autoaux
|  3>
|  4> %maxcore 5000
|  5> %basis
|  6> PCDTrimBas overlap
|  7> PCDTrimAuxJ Coulomb
|  8> PCDTrimAuxJK Coulomb
|  9> PCDTrimAuxC Coulomb
| 10> PCDThresh -1
| 11> end
| 12>
| 13> %basis
| 14> newgto Cu "ano-rcc-tzp" end
| 15> newgto S "ano-rcc-tzp" end
| 16> end
| 17>
| 18> %pal
| 19> nprocs 12
| 20> end
| 21>
| 22> % sym SymThresh 1e-2 end
| 23> * xyz -2 2
| 24> Cu -0.2506629845263437 0.031025478434643882 -0.15449165013115565
| 25> S 0.3627448611430626 -2.161286138480307 -0.7663586821405395
| 26> C 1.245688475831942 -1.9520392944592877 -2.254786732242182
| 27> S -1.1014336933617068 -0.7910612085325178 1.8844368115231835
| 28> C -1.5309364586099645 0.6464170960276366 2.7721163838199465
| 29> S 1.3278141721896042 0.7630412650327981 -1.7449112497507098
| 30> C 1.6708415180265097 -0.6637336591892365 -2.6858884011291564
| 31> S -0.13636268909253788 2.1332659854042024 0.9058852875005148
| 32> C -1.1057749503022603 1.9347216834157634 2.34101993287048
| 33> C -1.5038855157178506 3.0530111128325625 3.090165425939837
| 34> C -2.3270451028942207 0.5586504528628766 3.9248470871138568
| 35> C -2.7216692488125767 1.682687289176183 4.643993405626981
| 36> H -2.6554999935532284 -0.42667426143218135 4.239684569301956
| 37> C -2.305653935686173 2.9432479381615155 4.222186132930054
| 38> H -1.1841111379232985 4.031957245607672 2.7477051912602977
| 39> H -3.3570793520302926 1.5732676030209023 5.5207507267418565
| 40> H -2.6099674264070862 3.8371995189228163 4.763173475154089
| 41> C 1.5365727380340741 -3.0570565727035737 -3.0700181717179387
| 42> C 2.359748445222604 -0.5626986233978232 -3.904692035616215
| 43> C 2.208626352861341 -2.9312384777931015 -4.281987349320943
| 44> H 1.1989412283047114 -4.033792820374252 -2.7385649301286112
| 45> C 2.624628120206726 -1.6706761521966906 -4.703802970717881
| 46> H 2.670349996499112 0.4248358642989392 -4.230533104419887
| 47> H 2.396075859005791 -3.8107263158675155 -4.895001232669759
| 48> H 3.1432081033005255 -1.5467969148822192 -5.652565961207508
| 49> *
| 50>
| 51> % eprnmr
| 52> gtensor true
| 53> Nuclei = all H {aiso,adip,aorb,fgrad,rho}
| 54> Nuclei = all Cu {aiso,adip,aorb,fgrad,rho}
| 55> end
| 56>
| 57>                          ****END OF INPUT****

CARTESIAN COORDINATES (ANGSTROEM)
---------------------------------
  Cu     0.000000   -0.000000   -0.296078
  S     -1.661931    1.615597    0.133698
  C     -3.151641    0.711747    0.082629
  S      1.661931    1.615597    0.133698
  C      3.151641    0.711747    0.082629
  S     -1.661931   -1.615597    0.133698
  C     -3.151641   -0.711747    0.082629
  S      1.661931   -1.615597    0.133698
  C      3.151641   -0.711747    0.082629
  C      4.385460   -1.378053    0.019309
  C      4.385460    1.378053    0.019309
  C      5.596187    0.696420   -0.057308
  H      4.375043    2.463249    0.008764
  C      5.596187   -0.696420   -0.057308
  H      4.375043   -2.463249    0.008764
  H      6.530201    1.250749   -0.126316
  H      6.530201   -1.250749   -0.126316
  C     -4.385460    1.378053    0.019309
  C     -4.385460   -1.378053    0.019309
  C     -5.596187    0.696420   -0.057308
  H     -4.375043    2.463249    0.008764
  C     -5.596187   -0.696420   -0.057308
  H     -4.375043   -2.463249    0.008764
  H     -6.530201    1.250749   -0.126316
  H     -6.530201   -1.250749   -0.126316

 Total Charge           Charge          ....   -2
 Multiplicity           Mult            ....    2
 Number of Electrons    NEL             ....  175
 Basis Dimension        Dim             ....  475

ORBITAL ENERGIES
----------------
                 SPIN UP ORBITALS
  NO   OCC          E(Eh)            E(eV)    Irrep
   0   1.0000    -318.177040     -8658.0374    1-A1
   1   1.0000     -88.014288     -2394.9905    1-B1
   2   1.0000     -88.014288     -2394.9905    1-A2
   3   1.0000     -88.014278     -2394.9903    1-B2
   4   1.0000     -88.014250     -2394.9895    2-A1
   5   1.0000     -38.022171     -1034.6359    3-A1
   6   1.0000     -33.525284      -912.2694    2-B2
   7   1.0000     -33.524697      -912.2534    2-B1
   8   1.0000     -33.511056      -911.8822    4-A1
   9   1.0000      -9.832647      -267.5599    3-B1
  10   1.0000      -9.832641      -267.5598    5-A1
  11   1.0000      -9.832315      -267.5509    2-A2
  12   1.0000      -9.832313      -267.5508    3-B2
  13   1.0000      -9.824382      -267.3350    4-B1
  14   1.0000      -9.824382      -267.3350    6-A1
  15   1.0000      -9.823952      -267.3233    3-A2
  16   1.0000      -9.823952      -267.3233    4-B2
  17   1.0000      -9.816781      -267.1282    4-A2
  18   1.0000      -9.816780      -267.1282    5-B2
  19   1.0000      -9.816776      -267.1281    5-B1
  20   1.0000      -9.816776      -267.1280    7-A1
  21   1.0000      -7.582859      -206.3401    5-A2
  22   1.0000      -7.582857      -206.3400    6-B2
  23   1.0000      -7.582852      -206.3399    6-B1
  24   1.0000      -7.582843      -206.3396    8-A1
  25   1.0000      -5.506054      -149.8273    6-A2
  26   1.0000      -5.506053      -149.8273    7-B2
  27   1.0000      -5.506053      -149.8273    7-B1
  28   1.0000      -5.506053      -149.8273    9-A1
  29   1.0000      -5.500957      -149.6887    7-A2
  30   1.0000      -5.500957      -149.6887    8-B2
  31   1.0000      -5.500957      -149.6886    8-B1
  32   1.0000      -5.500957      -149.6886   10-A1
  33   1.0000      -5.498787      -149.6296    8-A2
  34   1.0000      -5.498787      -149.6296    9-B2
  35   1.0000      -5.498787      -149.6296    9-B1
  36   1.0000      -5.498786      -149.6296   11-A1
  37   1.0000      -4.021103      -109.4198   12-A1
  38   1.0000      -2.542195       -69.1766   10-B2
  39   1.0000      -2.541047       -69.1454   10-B1
  40   1.0000      -2.514220       -68.4154   13-A1
  41   1.0000      -0.588907       -16.0250   14-A1
  42   1.0000      -0.588799       -16.0220   11-B1
  43   1.0000      -0.504231       -13.7208   15-A1
  44   1.0000      -0.503237       -13.6938   12-B1
  45   1.0000      -0.489355       -13.3160   11-B2
  46   1.0000      -0.489090       -13.3088    9-A2
  47   1.0000      -0.408978       -11.1289   12-B2
  48   1.0000      -0.406198       -11.0532   10-A2
  49   1.0000      -0.386901       -10.5281   16-A1
  50   1.0000      -0.380790       -10.3618   13-B1
  51   1.0000      -0.321689        -8.7536   17-A1
  52   1.0000      -0.319114        -8.6835   14-B1
  53   1.0000      -0.299396        -8.1470   13-B2
  54   1.0000      -0.295603        -8.0438   11-A2
  55   1.0000      -0.232367        -6.3230   18-A1
  56   1.0000      -0.227475        -6.1899   15-B1
  57   1.0000      -0.189448        -5.1552   19-A1
  58   1.0000      -0.188733        -5.1357   16-B1
  59   1.0000      -0.177286        -4.8242   14-B2
  60   1.0000      -0.174074        -4.7368   12-A2
  61   1.0000      -0.146147        -3.9769   15-B2
  62   1.0000      -0.142660        -3.8820   13-A2
  63   1.0000      -0.129769        -3.5312   20-A1
  64   1.0000      -0.116872        -3.1802   21-A1
  65   1.0000      -0.116542        -3.1713   17-B1
  66   1.0000      -0.113500        -3.0885   18-B1
  67   1.0000      -0.085250        -2.3198   22-A1
  68   1.0000      -0.069476        -1.8905   16-B2
  69   1.0000      -0.061935        -1.6853   19-B1
  70   1.0000      -0.061116        -1.6630   14-A2
  71   1.0000      -0.040346        -1.0979   23-A1
  72   1.0000      -0.037130        -1.0104   20-B1
  73   1.0000      -0.031653        -0.8613   15-A2
  74   1.0000      -0.023555        -0.6410   17-B2
  75   1.0000      -0.021381        -0.5818   24-A1
  76   1.0000      -0.017002        -0.4626   16-A2
  77   1.0000      -0.004729        -0.1287   21-B1
  78   1.0000      -0.002516        -0.0685   18-B2
  79   1.0000       0.001275         0.0347   25-A1
  80   1.0000       0.016080         0.4376   26-A1
  81   1.0000       0.030590         0.8324   22-B1
  82   1.0000       0.033896         0.9224   19-B2
  83   1.0000       0.052045         1.4162   17-A2
  84   1.0000       0.056407         1.5349   20-B2
  85   1.0000       0.064325         1.7504   27-A1
  86   1.0000       0.085786         2.3344   23-B1
  87   1.0000       0.100237         2.7276   18-A2
  88   0.0000       0.181383         4.9357   28-A1
  89   0.0000       0.181509         4.9391   24-B1
  90   0.0000       0.196957         5.3595   19-A2
  91   0.0000       0.197134         5.3643   21-B2
  92   0.0000       0.200086         5.4446   29-A1

                 SPIN DOWN ORBITALS
  NO   OCC          E(Eh)            E(eV)    Irrep
   0   1.0000    -318.176872     -8658.0328    1-A1
   1   1.0000     -88.013205     -2394.9611    1-B1
   2   1.0000     -88.013205     -2394.9611    1-A2
   3   1.0000     -88.013195     -2394.9608    1-B2
   4   1.0000     -88.013167     -2394.9600    2-A1
   5   1.0000     -38.006915     -1034.2207    3-A1
   6   1.0000     -33.510704      -911.8726    2-B2
   7   1.0000     -33.510138      -911.8572    2-B1
   8   1.0000     -33.506906      -911.7693    4-A1
   9   1.0000      -9.832758      -267.5629    3-B1
  10   1.0000      -9.832752      -267.5628    5-A1
  11   1.0000      -9.832425      -267.5539    2-A2
  12   1.0000      -9.832423      -267.5538    3-B2
  13   1.0000      -9.824354      -267.3343    4-B1
  14   1.0000      -9.824354      -267.3343    6-A1
  15   1.0000      -9.823924      -267.3226    3-A2
  16   1.0000      -9.823924      -267.3226    4-B2
  17   1.0000      -9.816722      -267.1266    4-A2
  18   1.0000      -9.816721      -267.1266    5-B2
  19   1.0000      -9.816717      -267.1265    5-B1
  20   1.0000      -9.816716      -267.1264    7-A1
  21   1.0000      -7.582113      -206.3198    5-A2
  22   1.0000      -7.582111      -206.3197    6-B2
  23   1.0000      -7.582107      -206.3196    6-B1
  24   1.0000      -7.582097      -206.3193    8-A1
  25   1.0000      -5.505115      -149.8018    6-A2
  26   1.0000      -5.505114      -149.8018    7-B2
  27   1.0000      -5.505114      -149.8018    7-B1
  28   1.0000      -5.505114      -149.8018    9-A1
  29   1.0000      -5.498902      -149.6327    7-A2
  30   1.0000      -5.498902      -149.6327    8-B2
  31   1.0000      -5.498901      -149.6327    8-B1
  32   1.0000      -5.498901      -149.6327   10-A1
  33   1.0000      -5.497725      -149.6007    8-A2
  34   1.0000      -5.497725      -149.6007    9-B2
  35   1.0000      -5.497725      -149.6007    9-B1
  36   1.0000      -5.497724      -149.6007   11-A1
  37   1.0000      -3.988568      -108.5345   12-A1
  38   1.0000      -2.502957       -68.1089   13-A1
  39   1.0000      -2.501595       -68.0719   10-B2
  40   1.0000      -2.500424       -68.0400   10-B1
  41   1.0000      -0.588527       -16.0146   14-A1
  42   1.0000      -0.588429       -16.0120   11-B1
  43   1.0000      -0.502892       -13.6844   15-A1
  44   1.0000      -0.501965       -13.6592   12-B1
  45   1.0000      -0.488308       -13.2875   11-B2
  46   1.0000      -0.488072       -13.2811    9-A2
  47   1.0000      -0.404975       -11.0199   12-B2
  48   1.0000      -0.402145       -10.9429   10-A2
  49   1.0000      -0.383661       -10.4399   16-A1
  50   1.0000      -0.377621       -10.2756   13-B1
  51   1.0000      -0.320448        -8.7198   17-A1
  52   1.0000      -0.317573        -8.6416   14-B1
  53   1.0000      -0.297558        -8.0970   13-B2
  54   1.0000      -0.293405        -7.9840   11-A2
  55   1.0000      -0.231776        -6.3069   18-A1
  56   1.0000      -0.226755        -6.1703   15-B1
  57   1.0000      -0.188491        -5.1291   19-A1
  58   1.0000      -0.187844        -5.1115   16-B1
  59   1.0000      -0.176745        -4.8095   14-B2
  60   1.0000      -0.173298        -4.7157   12-A2
  61   1.0000      -0.145464        -3.9583   15-B2
  62   1.0000      -0.141378        -3.8471   13-A2
  63   1.0000      -0.128568        -3.4985   20-A1
  64   1.0000      -0.116600        -3.1728   21-A1
  65   1.0000      -0.116293        -3.1645   17-B1
  66   1.0000      -0.112602        -3.0641   18-B1
  67   1.0000      -0.083871        -2.2822   22-A1
  68   1.0000      -0.067886        -1.8473   16-B2
  69   1.0000      -0.060126        -1.6361   19-B1
  70   1.0000      -0.048848        -1.3292   14-A2
  71   1.0000      -0.038576        -1.0497   23-A1
  72   1.0000      -0.035580        -0.9682   20-B1
  73   1.0000      -0.021393        -0.5821   17-B2
  74   1.0000      -0.019486        -0.5302   15-A2
  75   1.0000      -0.015479        -0.4212   24-A1
  76   1.0000       0.002199         0.0598   16-A2
  77   1.0000       0.006125         0.1667   21-B1
  78   1.0000       0.008336         0.2268   18-B2
  79   1.0000       0.011617         0.3161   25-A1
  80   1.0000       0.030907         0.8410   26-A1
  81   1.0000       0.039084         1.0635   22-B1
  82   1.0000       0.040000         1.0885   19-B2
  83   1.0000       0.055672         1.5149   17-A2
  84   1.0000       0.063682         1.7329   20-B2
  85   1.0000       0.067092         1.8257   27-A1
  86   1.0000       0.089811         2.4439   23-B1
  87   0.0000       0.131416         3.5760   18-A2
  88   0.0000       0.182308         4.9608   28-A1
  89   0.0000       0.182416         4.9638   24-B1
  90   0.0000       0.198546         5.4027   19-A2
  91   0.0000       0.198759         5.4085   21-B2

MULLIKEN ATOMIC CHARGES AND SPIN POPULATIONS
--------------------------------------------
   0 Cu:    0.149750    0.364107
   1 S :   -0.427199    0.164605
   2 C :    0.022876   -0.006853
   3 S :   -0.427199    0.164605
   4 C :    0.022876   -0.006853
   5 S :   -0.427199    0.164605
   6 C :    0.022876   -0.006853
   7 S :   -0.427199    0.164605
   8 C :    0.022876   -0.006853
   9 C :   -0.091936   -0.001260
  10 C :   -0.091936   -0.001260
  11 C :   -0.136386   -0.000209
  12 H :    0.065614    0.001712
  13 C :   -0.136386   -0.000209
  14 H :    0.065614    0.001712
  15 H :    0.029593    0.000979
  16 H :    0.029593    0.000979
  17 C :   -0.091936   -0.001260
  18 C :   -0.091936   -0.001260
  19 C :   -0.136386   -0.000209
  20 H :    0.065614    0.001712
  21 C :   -0.136386   -0.000209
  22 H :    0.065614    0.001712
  23 H :    0.029593    0.000979
  24 H :    0.029593    0.000979
Sum of atomic charges         :   -2.0000000

LOEWDIN ATOMIC CHARGES AND SPIN POPULATIONS
-------------------------------------------
   0 Cu:   -0.835611    0.425076
   1 S :   -0.001574    0.127601
   2 C :   -0.041669    0.005525
   3 S :   -0.001574    0.127601
   4 C :   -0.041669    0.005525
   5 S :   -0.001574    0.127601
   6 C :   -0.041669    0.005525
   7 S :   -0.001574    0.127601
   8 C :   -0.041669    0.005525
   9 C :    0.306850    0.003965
  10 C :    0.306850    0.003965
  11 C :    0.310680    0.000316
  12 H :   -0.448834    0.006048
  13 C :    0.310680    0.000316
  14 H :   -0.448834    0.006048
  15 H :   -0.416551    0.000276
  16 H :   -0.416551    0.000276
  17 C :    0.306850    0.003965
  18 C :    0.306850    0.003965
  19 C :    0.310680    0.000316
  20 H :   -0.448834    0.006048
  21 C :    0.310680    0.000316
  22 H :   -0.448834    0.006048
  23 H :   -0.416551    0.000276
  24 H :   -0.416551    0.000276

  Mayer bond orders larger than 0.100000
B(  0-Cu,  1-S ) :   0.6805 B(  0-Cu,  3-S ) :   0.6805 B(  0-Cu,  5-S ) :   0.6805
B(  0-Cu,  7-S ) :   0.6805 B(  1-S ,  2-C ) :   1.1845 B(  2-C ,  6-C ) :   1.2445
B(  2-C , 17-C ) :   1.3189 B(  3-S ,  4-C ) :   1.1845 B(  4-C ,  8-C ) :   1.2445
B(  4-C , 10-C ) :   1.3189 B(  5-S ,  6-C ) :   1.1845 B(  6-C , 18-C ) :   1.3189
B(  7-S ,  8-C ) :   1.1845 B(  8-C ,  9-C ) :   1.3189 B(  9-C , 13-C ) :   1.3617
B(  9-C , 14-H ) :   0.9692 B( 10-C , 11-C ) :   1.3617 B( 10-C , 12-H ) :   0.9692
B( 11-C , 13-C ) :   1.3396 B( 11-C , 15-H ) :   0.9891 B( 13-C , 16-H ) :   0.9891
B( 17-C , 19-C ) :   1.3617 B( 17-C , 20-H ) :   0.9692 B( 18-C , 21-C ) :   1.3617
B( 18-C , 22-H ) :   0.9692 B( 19-C , 21-C ) :   1.3396 B( 19-C , 23-H ) :   0.9891
B( 21-C , 24-H ) :   0.9891

FINAL SINGLE POINT ENERGY     -3686.917303682017

DIPOLE MOMENT
-------------
                                X             Y             Z
Electronic contribution:      0.00000      -0.00000      -1.48821
Nuclear contribution   :      0.00000      -0.00000       1.07973
                        -----------------------------------------
Total Dipole Moment    :      0.00000      -0.00000      -0.40848
                        -----------------------------------------
Magnitude (a.u.)       :      0.40848
Magnitude (Debye)      :      1.03827

Rotational constants in cm-1:     0.032873     0.004792     0.004200
Rotational constants in MHz :   985.516890   143.673118   125.919642

                             ****ORCA TERMINATED NORMALLY****
TOTAL RUN TIME: 0 days 6 hours 27 minutes 33 seconds 936 msec
