                         Program Version 5.0.4 -  RELEASE  -
|  1> ! RIJCOSX nofrozencore ReducedPop printbasis
|  2> ! M06L ano-rcc-dzp autoaux
|  3>
|  4> %maxcore 5000
|  5> %basis
|  6> PCDTrimBas overlap
|  7> PCDTrimAuxJ Coulomb
|  8> PCDTrimAuxJK Coulomb
|  9> PCDTrimAuxC Coulomb
| 10> PCDThresh -1
| 11> end
| 12>
| 13> %basis
| 14> newgto Cu "ano-rcc-tzp" end
| 15> newgto S "ano-rcc-tzp" end
| 16> end
| 17>
| 18> %pal
| 19> nprocs 12
| 20> end
| 21>
| 22> % sym SymThresh 1e-2 end
| 23> * xyz -2 2
| 24> Cu 0.00012166771628535803 0.0004784800623174062 5.7120896164510197e-05
| 25> S -1.165351397011733 0.05970048244464972 2.002639721450086
| 26> C 0.005074758393083025 -0.4113177166755211 3.204827720411518
| 27> S -1.8868934729653548 0.6244141564166886 -1.1924399531218237
| 28> C -1.3626406822219466 0.661941598431782 -2.853956192759147
| 29> S 1.8880039050801847 -0.6200471834535665 1.1929612818642827
| 30> C 1.35023057516084 -0.7107465647881575 2.8481298613503667
| 31> S 1.1664637875606276 -0.055325807589176296 -2.002117473256582
| 32> C -0.017526726982327965 0.3623481223701391 -3.210673705086383
| 33> C 0.355048193909298 0.47418481962087805 -4.55859279967205
| 34> C -2.2493809827739955 1.0539321523338048 -3.867968458702931
| 35> C -1.8650013713243858 1.128373913941348 -5.201142819717878
| 36> H -3.306612201648175 1.1466504317717097 -3.6019973363514803
| 37> C -0.5488422858456375 0.83527629794796 -5.550173366707304
| 38> H 1.3488090434036955 0.1105302157530471 -4.836456955118384
| 39> H -2.6678702393780966 1.103634176277378 -5.995881666205497
| 40> H -0.3040670313934345 0.5773294228174258 -6.622718922520786
| 41> C -0.3451022587722652 -0.4350696266295654 4.563261385486009
| 42> C 2.2593102157451628 -1.0148846907991103 3.8726309218181565
| 43> C 0.5651210345978055 -0.7712572059883612 5.557815958723906
| 44> H -1.4096967584831608 -0.3499820489514078 4.807871222132394
| 45> C 1.8813065589364306 -1.0642508464350082 5.208797824323587
| 46> H 3.2456429390125994 -1.386423988925005 3.57337417753332
| 47> H 0.1613870654759431 -1.1384399895909403 6.555733831471443
| 48> H 2.525205451324609 -1.6646850533851707 5.928903700901752
| 49> *
| 50>
| 51> % eprnmr
| 52> gtensor true
| 53> Nuclei = all H {aiso,adip,aorb,fgrad,rho}
| 54> Nuclei = all Cu {aiso,adip,aorb,fgrad,rho}
| 55> end
| 56>
| 57>                          ****END OF INPUT****

CARTESIAN COORDINATES (ANGSTROEM)
---------------------------------
  Cu     0.000492    0.000073   -0.000000
  S     -0.240865    1.644386   -1.615597
  C     -0.487306    3.113852   -0.711747
  S      0.245356   -1.643721   -1.615597
  C      0.437073   -3.121283   -0.711747
  S     -0.240865    1.644386    1.615597
  C     -0.487306    3.113852    0.711747
  S      0.245356   -1.643721    1.615597
  C      0.437073   -3.121283    0.711747
  C      0.661013   -4.335401    1.378053
  C      0.661013   -4.335401   -1.378053
  C      0.850519   -5.531271   -0.696420
  H      0.522111   -4.345417   -2.463249
  C      0.850519   -5.531271    0.696420
  H      0.522111   -4.345417    2.463249
  H      0.678860   -6.500841   -1.250748
  H      0.678860   -6.500841    1.250748
  C     -0.620856    4.341342   -1.378053
  C     -0.620856    4.341342    1.378053
  C     -0.784685    5.541010   -0.696420
  H     -0.768319    4.308997   -2.463249
  C     -0.784685    5.541010    0.696420
  H     -0.768319    4.308997    2.463249
  H     -1.255384    6.415557   -1.250748
  H     -1.255384    6.415557    1.250748

 Total Charge           Charge          ....   -2
 Multiplicity           Mult            ....    2
 Number of Electrons    NEL             ....  175
 Basis Dimension        Dim             ....  475

ORBITAL ENERGIES
----------------
                 SPIN UP ORBITALS
  NO   OCC          E(Eh)            E(eV)    Irrep
   0   1.0000    -318.183275     -8658.2071    1-A'
   1   1.0000     -88.016662     -2395.0551    1-A"
   2   1.0000     -88.016657     -2395.0550    2-A'
   3   1.0000     -88.016561     -2395.0524    2-A"
   4   1.0000     -88.016545     -2395.0519    3-A'
   5   1.0000     -38.028475     -1034.8074    4-A'
   6   1.0000     -33.531611      -912.4415    3-A"
   7   1.0000     -33.530756      -912.4183    5-A'
   8   1.0000     -33.517013      -912.0443    6-A'
   9   1.0000      -9.835013      -267.6243    7-A'
  10   1.0000      -9.834843      -267.6197    8-A'
  11   1.0000      -9.834682      -267.6153    4-A"
  12   1.0000      -9.834513      -267.6107    5-A"
  13   1.0000      -9.829689      -267.4794    9-A'
  14   1.0000      -9.829260      -267.4678    6-A"
  15   1.0000      -9.829002      -267.4607   10-A'
  16   1.0000      -9.828573      -267.4491    7-A"
  17   1.0000      -9.819256      -267.1956    8-A"
  18   1.0000      -9.819252      -267.1954   11-A'
  19   1.0000      -9.819012      -267.1889    9-A"
  20   1.0000      -9.819008      -267.1888   12-A'
  21   1.0000      -7.585325      -206.4072   10-A"
  22   1.0000      -7.585315      -206.4069   13-A'
  23   1.0000      -7.585228      -206.4045   11-A"
  24   1.0000      -7.585217      -206.4043   14-A'
  25   1.0000      -5.508530      -149.8947   12-A"
  26   1.0000      -5.508529      -149.8947   15-A'
  27   1.0000      -5.508431      -149.8920   13-A"
  28   1.0000      -5.508430      -149.8920   16-A'
  29   1.0000      -5.503221      -149.7503   14-A"
  30   1.0000      -5.503221      -149.7502   17-A'
  31   1.0000      -5.503128      -149.7477   15-A"
  32   1.0000      -5.503128      -149.7477   18-A'
  33   1.0000      -5.501404      -149.7008   16-A"
  34   1.0000      -5.501404      -149.7008   19-A'
  35   1.0000      -5.501304      -149.6981   17-A"
  36   1.0000      -5.501303      -149.6981   20-A'
  37   1.0000      -4.026076      -109.5551   21-A'
  38   1.0000      -2.547511       -69.3213   18-A"
  39   1.0000      -2.545960       -69.2791   22-A'
  40   1.0000      -2.518581       -68.5341   23-A'
  41   1.0000      -0.591224       -16.0880   24-A'
  42   1.0000      -0.591084       -16.0842   25-A'
  43   1.0000      -0.505427       -13.7534   26-A'
  44   1.0000      -0.504299       -13.7227   27-A'
  45   1.0000      -0.491075       -13.3628   19-A"
  46   1.0000      -0.490812       -13.3557   20-A"
  47   1.0000      -0.410531       -11.1711   21-A"
  48   1.0000      -0.407880       -11.0990   22-A"
  49   1.0000      -0.388077       -10.5601   28-A'
  50   1.0000      -0.381300       -10.3757   29-A'
  51   1.0000      -0.322613        -8.7788   30-A'
  52   1.0000      -0.320030        -8.7084   31-A'
  53   1.0000      -0.296984        -8.0814   23-A"
  54   1.0000      -0.293272        -7.9803   24-A"
  55   1.0000      -0.229311        -6.2399   32-A'
  56   1.0000      -0.223902        -6.0927   33-A'
  57   1.0000      -0.191680        -5.2159   34-A'
  58   1.0000      -0.190820        -5.1925   35-A'
  59   1.0000      -0.174665        -4.7529   25-A"
  60   1.0000      -0.172094        -4.6829   26-A"
  61   1.0000      -0.144121        -3.9217   27-A"
  62   1.0000      -0.140499        -3.8232   28-A"
  63   1.0000      -0.135171        -3.6782   36-A'
  64   1.0000      -0.122257        -3.3268   37-A'
  65   1.0000      -0.114472        -3.1149   38-A'
  66   1.0000      -0.109737        -2.9861   39-A'
  67   1.0000      -0.087843        -2.3903   40-A'
  68   1.0000      -0.070984        -1.9316   29-A"
  69   1.0000      -0.067064        -1.8249   30-A"
  70   1.0000      -0.063565        -1.7297   41-A'
  71   1.0000      -0.039493        -1.0746   42-A'
  72   1.0000      -0.039099        -1.0639   43-A'
  73   1.0000      -0.033266        -0.9052   31-A"
  74   1.0000      -0.029828        -0.8117   44-A'
  75   1.0000      -0.027543        -0.7495   32-A"
  76   1.0000      -0.019943        -0.5427   33-A"
  77   1.0000      -0.004172        -0.1135   34-A"
  78   1.0000      -0.002513        -0.0684   45-A'
  79   1.0000      -0.000575        -0.0157   46-A'
  80   1.0000       0.016511         0.4493   47-A'
  81   1.0000       0.017338         0.4718   48-A'
  82   1.0000       0.032836         0.8935   35-A"
  83   1.0000       0.048419         1.3175   36-A"
  84   1.0000       0.050600         1.3769   37-A"
  85   1.0000       0.060272         1.6401   49-A'
  86   1.0000       0.085251         2.3198   50-A'
  87   1.0000       0.103231         2.8090   38-A"
  88   0.0000       0.179701         4.8899   51-A'
  89   0.0000       0.179951         4.8967   52-A'
  90   0.0000       0.196186         5.3385   53-A'
  91   0.0000       0.196372         5.3436   39-A"
  92   0.0000       0.196524         5.3477   40-A"

                 SPIN DOWN ORBITALS
  NO   OCC          E(Eh)            E(eV)    Irrep
   0   1.0000    -318.183101     -8658.2024    1-A'
   1   1.0000     -88.015591     -2395.0260    1-A"
   2   1.0000     -88.015586     -2395.0259    2-A'
   3   1.0000     -88.015490     -2395.0233    2-A"
   4   1.0000     -88.015474     -2395.0228    3-A'
   5   1.0000     -38.012618     -1034.3759    4-A'
   6   1.0000     -33.516463      -912.0293    3-A"
   7   1.0000     -33.515640      -912.0069    5-A'
   8   1.0000     -33.512690      -911.9267    6-A'
   9   1.0000      -9.835128      -267.6274    7-A'
  10   1.0000      -9.834958      -267.6228    8-A'
  11   1.0000      -9.834797      -267.6184    4-A"
  12   1.0000      -9.834627      -267.6138    5-A"
  13   1.0000      -9.829668      -267.4789    9-A'
  14   1.0000      -9.829239      -267.4672    6-A"
  15   1.0000      -9.828981      -267.4602   10-A'
  16   1.0000      -9.828552      -267.4485    7-A"
  17   1.0000      -9.819194      -267.1939    8-A"
  18   1.0000      -9.819190      -267.1937   11-A'
  19   1.0000      -9.818950      -267.1872    9-A"
  20   1.0000      -9.818946      -267.1871   12-A'
  21   1.0000      -7.584594      -206.3873   10-A"
  22   1.0000      -7.584585      -206.3870   13-A'
  23   1.0000      -7.584496      -206.3846   11-A"
  24   1.0000      -7.584486      -206.3844   14-A'
  25   1.0000      -5.507600      -149.8694   12-A"
  26   1.0000      -5.507599      -149.8694   15-A'
  27   1.0000      -5.507500      -149.8667   13-A"
  28   1.0000      -5.507499      -149.8667   16-A'
  29   1.0000      -5.500983      -149.6894   14-A"
  30   1.0000      -5.500983      -149.6894   17-A'
  31   1.0000      -5.500891      -149.6869   15-A"
  32   1.0000      -5.500891      -149.6869   18-A'
  33   1.0000      -5.500587      -149.6786   16-A"
  34   1.0000      -5.500587      -149.6786   19-A'
  35   1.0000      -5.500484      -149.6758   17-A"
  36   1.0000      -5.500484      -149.6758   20-A'
  37   1.0000      -3.992382      -108.6382   21-A'
  38   1.0000      -2.506877       -68.2156   22-A'
  39   1.0000      -2.505495       -68.1780   18-A"
  40   1.0000      -2.503931       -68.1354   23-A'
  41   1.0000      -0.590853       -16.0779   24-A'
  42   1.0000      -0.590722       -16.0744   25-A'
  43   1.0000      -0.504079       -13.7167   26-A'
  44   1.0000      -0.503025       -13.6880   27-A'
  45   1.0000      -0.489993       -13.3334   19-A"
  46   1.0000      -0.489755       -13.3269   20-A"
  47   1.0000      -0.406520       -11.0620   21-A"
  48   1.0000      -0.403766       -10.9870   22-A"
  49   1.0000      -0.384831       -10.4718   28-A'
  50   1.0000      -0.378109       -10.2889   29-A'
  51   1.0000      -0.321431        -8.7466   30-A'
  52   1.0000      -0.318530        -8.6677   31-A'
  53   1.0000      -0.295179        -8.0322   23-A"
  54   1.0000      -0.291021        -7.9191   24-A"
  55   1.0000      -0.228742        -6.2244   32-A'
  56   1.0000      -0.223230        -6.0744   33-A'
  57   1.0000      -0.190701        -5.1892   34-A'
  58   1.0000      -0.189925        -5.1681   35-A'
  59   1.0000      -0.174192        -4.7400   25-A"
  60   1.0000      -0.171357        -4.6629   26-A"
  61   1.0000      -0.143384        -3.9017   27-A"
  62   1.0000      -0.138791        -3.7767   28-A"
  63   1.0000      -0.134100        -3.6491   36-A'
  64   1.0000      -0.121769        -3.3135   37-A'
  65   1.0000      -0.114081        -3.1043   38-A'
  66   1.0000      -0.109102        -2.9688   39-A'
  67   1.0000      -0.086445        -2.3523   40-A'
  68   1.0000      -0.069571        -1.8931   29-A"
  69   1.0000      -0.061876        -1.6837   41-A'
  70   1.0000      -0.052834        -1.4377   30-A"
  71   1.0000      -0.037684        -1.0254   42-A'
  72   1.0000      -0.037464        -1.0195   43-A'
  73   1.0000      -0.024154        -0.6573   31-A"
  74   1.0000      -0.023496        -0.6394   44-A'
  75   1.0000      -0.019050        -0.5184   32-A"
  76   1.0000      -0.004395        -0.1196   33-A"
  77   1.0000       0.005332         0.1451   34-A"
  78   1.0000       0.008328         0.2266   45-A'
  79   1.0000       0.011622         0.3163   46-A'
  80   1.0000       0.024198         0.6585   47-A'
  81   1.0000       0.032240         0.8773   48-A'
  82   1.0000       0.041163         1.1201   35-A"
  83   1.0000       0.051293         1.3957   36-A"
  84   1.0000       0.056164         1.5283   37-A"
  85   1.0000       0.062126         1.6905   49-A'
  86   1.0000       0.089430         2.4335   50-A'
  87   0.0000       0.136217         3.7067   38-A"
  88   0.0000       0.180585         4.9140   51-A'
  89   0.0000       0.180846         4.9211   52-A'
  90   0.0000       0.196211         5.3392   53-A'
  91   0.0000       0.197865         5.3842   39-A"

MULLIKEN ATOMIC CHARGES AND SPIN POPULATIONS
--------------------------------------------
   0 Cu:    0.141237    0.374921
   1 S :   -0.419633    0.162968
   2 C :    0.028682   -0.007521
   3 S :   -0.420416    0.163064
   4 C :    0.028006   -0.007507
   5 S :   -0.419633    0.162968
   6 C :    0.028682   -0.007521
   7 S :   -0.420416    0.163064
   8 C :    0.028006   -0.007507
   9 C :   -0.079440   -0.001265
  10 C :   -0.079440   -0.001265
  11 C :   -0.123295   -0.001097
  12 H :    0.061292    0.001918
  13 C :   -0.123295   -0.001097
  14 H :    0.061292    0.001918
  15 H :   -0.001327    0.001200
  16 H :   -0.001327    0.001200
  17 C :   -0.077743   -0.001189
  18 C :   -0.077743   -0.001189
  19 C :   -0.121007   -0.001138
  20 H :    0.060439    0.001888
  21 C :   -0.121007   -0.001138
  22 H :    0.060439    0.001888
  23 H :   -0.006177    0.001219
  24 H :   -0.006177    0.001219
Sum of atomic charges         :   -2.0000000

LOEWDIN ATOMIC CHARGES AND SPIN POPULATIONS
-------------------------------------------
   0 Cu:   -0.893404    0.441701
   1 S :    0.011012    0.124181
   2 C :   -0.039191    0.005102
   3 S :    0.010855    0.124239
   4 C :   -0.039038    0.005114
   5 S :    0.011012    0.124181
   6 C :   -0.039191    0.005102
   7 S :    0.010855    0.124239
   8 C :   -0.039038    0.005114
   9 C :    0.296065    0.004056
  10 C :    0.296065    0.004056
  11 C :    0.282665   -0.000247
  12 H :   -0.442515    0.006176
  13 C :    0.282665   -0.000247
  14 H :   -0.442515    0.006176
  15 H :   -0.384487    0.000269
  16 H :   -0.384487    0.000269
  17 C :    0.294242    0.004085
  18 C :    0.294242    0.004085
  19 C :    0.277937   -0.000269
  20 H :   -0.441745    0.006160
  21 C :    0.277937   -0.000269
  22 H :   -0.441745    0.006160
  23 H :   -0.379099    0.000281
  24 H :   -0.379099    0.000281

  Mayer bond orders larger than 0.100000
B(  0-Cu,  1-S ) :   0.7010 B(  0-Cu,  3-S ) :   0.7013 B(  0-Cu,  5-S ) :   0.7010
B(  0-Cu,  7-S ) :   0.7013 B(  1-S ,  2-C ) :   1.1859 B(  2-C ,  6-C ) :   1.2399
B(  2-C , 17-C ) :   1.3190 B(  3-S ,  4-C ) :   1.1855 B(  4-C ,  8-C ) :   1.2404
B(  4-C , 10-C ) :   1.3190 B(  5-S ,  6-C ) :   1.1859 B(  6-C , 18-C ) :   1.3190
B(  7-S ,  8-C ) :   1.1855 B(  8-C ,  9-C ) :   1.3190 B(  9-C , 13-C ) :   1.3605
B(  9-C , 14-H ) :   0.9719 B( 10-C , 11-C ) :   1.3605 B( 10-C , 12-H ) :   0.9719
B( 11-C , 13-C ) :   1.3354 B( 11-C , 15-H ) :   1.0066 B( 13-C , 16-H ) :   1.0066
B( 17-C , 19-C ) :   1.3603 B( 17-C , 20-H ) :   0.9725 B( 18-C , 21-C ) :   1.3603
B( 18-C , 22-H ) :   0.9725 B( 19-C , 21-C ) :   1.3350 B( 19-C , 23-H ) :   1.0086
B( 21-C , 24-H ) :   1.0086

FINAL SINGLE POINT ENERGY     -3686.906111937983

DIPOLE MOMENT
-------------
                                X             Y             Z
Electronic contribution:      1.21670       0.15603       0.00000
Nuclear contribution   :     -1.54655      -0.22878      -0.00000
                        -----------------------------------------
Total Dipole Moment    :     -0.32985      -0.07275       0.00000
                        -----------------------------------------
Magnitude (a.u.)       :      0.33778
Magnitude (Debye)      :      0.85856

Rotational constants in cm-1:     0.033389     0.004803     0.004200
Rotational constants in MHz :  1000.979082   143.997356   125.919615

                             ****ORCA TERMINATED NORMALLY****
TOTAL RUN TIME: 0 days 6 hours 34 minutes 50 seconds 592 msec
