                         Program Version 5.0.4 -  RELEASE  -
|  1> ! RIJCOSX nofrozencore ReducedPop printbasis
|  2> ! M06L ano-rcc-dzp autoaux
|  3>
|  4> %maxcore 5000
|  5> %basis
|  6> PCDTrimBas overlap
|  7> PCDTrimAuxJ Coulomb
|  8> PCDTrimAuxJK Coulomb
|  9> PCDTrimAuxC Coulomb
| 10> PCDThresh -1
| 11> end
| 12>
| 13> %basis
| 14> newgto Cu "ano-rcc-tzp" end
| 15> newgto S "ano-rcc-tzp" end
| 16> end
| 17>
| 18> %pal
| 19> nprocs 12
| 20> end
| 21>
| 22> % sym SymThresh 1e-2 end
| 23> * xyz -2 2
| 24> Cu -6.991947193982463e-08 2.686937926201785e-07 9.60684606544229e-07
| 25> S 0.07870532546626698 -2.2293707156712808 0.62918995831511
| 26> C 1.774946891246406 -2.5637298193996503 0.846335657141277
| 27> S -2.3121031866489217 -0.056458083880614296 -0.15218324120424742
| 28> C -2.7590848015071208 1.5575608244809305 -0.6331637598660356
| 29> S 2.3120780156390235 0.05655481364595756 0.15252908766260334
| 30> C 2.758871686956648 -1.5567418458010243 0.6360919265467824
| 31> S -0.0786807837316161 2.2292764041500712 -0.629527158612007
| 32> C -1.7747268546682111 2.5628842400342746 -0.8493589315980716
| 33> C -2.199678307136751 3.833270493503429 -1.2648046241542514
| 34> C -4.1090799031036624 1.9003806403353953 -0.7976865387838954
| 35> C -4.50395794321392 3.155483755848727 -1.2494051125235717
| 36> H -4.832871370895587 1.0536231236365818 -0.8933627138833888
| 37> C -3.5464686080362338 4.160951748447654 -1.3830242615257848
| 38> H -1.4607700362634028 4.665908236411208 -1.1660131139704486
| 39> H -5.580606533523697 3.457222674482465 -1.0893391308013032
| 40> H -3.8135269189327237 5.08063221297108 -1.9813923462964296
| 41> C 2.2017766403250745 -3.841336296149398 1.2359636763975106
| 42> C 4.106960873751645 -1.8922353043268103 0.8268118491841734
| 43> C 3.5439740211163646 -4.151365291314551 1.41729956691807
| 44> H 1.4449890016881686 -4.605263241335456 1.3828425117213006
| 45> C 4.506464346524547 -3.1651156222327828 1.2149674514327806
| 46> H 4.848761569850582 -1.114685516486969 0.6750435294914631
| 47> H 3.8317296224192003 -5.15058681193613 1.7312801779110782
| 48> H 5.562340568916328 -3.38703169639889 1.3403018001818974
| 49> *
| 50>
| 51> % eprnmr
| 52> gtensor true
| 53> Nuclei = all H {aiso,adip,aorb,fgrad,rho}
| 54> Nuclei = all Cu {aiso,adip,aorb,fgrad,rho}
| 55> end
| 56>
| 57>                          ****END OF INPUT****

CARTESIAN COORDINATES (ANGSTROEM)
---------------------------------
  Cu    -0.000000   -0.000000   -0.000000
  S     -1.562268    0.411670    1.661931
  C     -0.688220    0.181487    3.151642
  S     -1.562177    0.412014   -1.661931
  C     -0.687430    0.184482   -3.151642
  S      1.562268   -0.411670    1.661931
  C      0.688220   -0.181487    3.151642
  S      1.562177   -0.412014   -1.661931
  C      0.687430   -0.184482   -3.151642
  C      1.324535   -0.381611   -4.385461
  C     -1.324535    0.381611   -4.385461
  C     -0.682962    0.141294   -5.596188
  H     -2.442172    0.399123   -4.375043
  C      0.682962   -0.141294   -5.596188
  H      2.442172   -0.399123   -4.375043
  H     -1.140087    0.581935   -6.530201
  H      1.140087   -0.581935   -6.530201
  C     -1.332223    0.352438    4.385460
  C      1.332223   -0.352438    4.385460
  C     -0.673848    0.175876    5.596188
  H     -2.384454    0.618123    4.375043
  C      0.673848   -0.175876    5.596188
  H      2.384454   -0.618123    4.375043
  H     -1.206550    0.329756    6.530201
  H      1.206550   -0.329756    6.530201

 Total Charge           Charge          ....   -2
 Multiplicity           Mult            ....    2
 Number of Electrons    NEL             ....  175
 Basis Dimension        Dim             ....  475

ORBITAL ENERGIES
----------------
                 SPIN UP ORBITALS
  NO   OCC          E(Eh)            E(eV)    Irrep
   0   1.0000    -318.182859     -8658.1958    1-A
   1   1.0000     -88.016589     -2395.0532    1-B
   2   1.0000     -88.016580     -2395.0529    2-A
   3   1.0000     -88.015552     -2395.0249    2-B
   4   1.0000     -88.015541     -2395.0246    3-A
   5   1.0000     -38.028101     -1034.7972    4-A
   6   1.0000     -33.531231      -912.4312    3-B
   7   1.0000     -33.530384      -912.4081    5-A
   8   1.0000     -33.516626      -912.0338    4-B
   9   1.0000      -9.834905      -267.6214    6-A
  10   1.0000      -9.834575      -267.6124    5-B
  11   1.0000      -9.833531      -267.5840    7-A
  12   1.0000      -9.833201      -267.5750    6-B
  13   1.0000      -9.826896      -267.4034    8-A
  14   1.0000      -9.826471      -267.3919    7-B
  15   1.0000      -9.824587      -267.3406    9-A
  16   1.0000      -9.824156      -267.3289    8-B
  17   1.0000      -9.819625      -267.2056    9-B
  18   1.0000      -9.819622      -267.2055   10-A
  19   1.0000      -9.817307      -267.1425   10-B
  20   1.0000      -9.817303      -267.1424   11-A
  21   1.0000      -7.585259      -206.4054   11-B
  22   1.0000      -7.585250      -206.4051   12-A
  23   1.0000      -7.584258      -206.3781   12-B
  24   1.0000      -7.584248      -206.3779   13-A
  25   1.0000      -5.508449      -149.8925   13-B
  26   1.0000      -5.508449      -149.8925   14-A
  27   1.0000      -5.507454      -149.8654   14-B
  28   1.0000      -5.507453      -149.8654   15-A
  29   1.0000      -5.503129      -149.7478   15-B
  30   1.0000      -5.503129      -149.7478   16-A
  31   1.0000      -5.502177      -149.7218   16-B
  32   1.0000      -5.502176      -149.7218   17-A
  33   1.0000      -5.501380      -149.7002   18-A
  34   1.0000      -5.501380      -149.7002   17-B
  35   1.0000      -5.500314      -149.6712   19-A
  36   1.0000      -5.500314      -149.6712   18-B
  37   1.0000      -4.025711      -109.5452   20-A
  38   1.0000      -2.547147       -69.3114   19-B
  39   1.0000      -2.545598       -69.2693   21-A
  40   1.0000      -2.518205       -68.5238   20-B
  41   1.0000      -0.590618       -16.0715   22-A
  42   1.0000      -0.590397       -16.0655   23-A
  43   1.0000      -0.505395       -13.7525   24-A
  44   1.0000      -0.504085       -13.7169   25-A
  45   1.0000      -0.490899       -13.3580   21-B
  46   1.0000      -0.489685       -13.3250   22-B
  47   1.0000      -0.410499       -11.1702   23-B
  48   1.0000      -0.407771       -11.0960   24-B
  49   1.0000      -0.388410       -10.5692   26-A
  50   1.0000      -0.381536       -10.3821   27-A
  51   1.0000      -0.322173        -8.7668   28-A
  52   1.0000      -0.317945        -8.6517   29-A
  53   1.0000      -0.299973        -8.1627   25-B
  54   1.0000      -0.294587        -8.0161   26-B
  55   1.0000      -0.232041        -6.3142   30-A
  56   1.0000      -0.220811        -6.0086   31-A
  57   1.0000      -0.190815        -5.1923   32-A
  58   1.0000      -0.189759        -5.1636   33-A
  59   1.0000      -0.177595        -4.8326   27-B
  60   1.0000      -0.173578        -4.7233   28-B
  61   1.0000      -0.146387        -3.9834   29-B
  62   1.0000      -0.138743        -3.7754   30-B
  63   1.0000      -0.131039        -3.5657   34-A
  64   1.0000      -0.117925        -3.2089   31-B
  65   1.0000      -0.114449        -3.1143   32-B
  66   1.0000      -0.112833        -3.0703   35-A
  67   1.0000      -0.086866        -2.3637   36-A
  68   1.0000      -0.070020        -1.9053   33-B
  69   1.0000      -0.066218        -1.8019   34-B
  70   1.0000      -0.063742        -1.7345   37-A
  71   1.0000      -0.039555        -1.0763   35-B
  72   1.0000      -0.037740        -1.0270   36-B
  73   1.0000      -0.031708        -0.8628   38-A
  74   1.0000      -0.031661        -0.8615   37-B
  75   1.0000      -0.026341        -0.7168   39-A
  76   1.0000      -0.018599        -0.5061   40-A
  77   1.0000      -0.004046        -0.1101   41-A
  78   1.0000      -0.001529        -0.0416   42-A
  79   1.0000      -0.000055        -0.0015   38-B
  80   1.0000       0.017002         0.4627   43-A
  81   1.0000       0.017655         0.4804   44-A
  82   1.0000       0.033320         0.9067   39-B
  83   1.0000       0.048699         1.3252   45-A
  84   1.0000       0.050899         1.3850   46-A
  85   1.0000       0.060775         1.6538   40-B
  86   1.0000       0.085773         2.3340   41-B
  87   1.0000       0.103623         2.8197   42-B
  88   0.0000       0.180935         4.9235   47-A
  89   0.0000       0.181694         4.9442   48-A
  90   0.0000       0.193124         5.2552   43-B
  91   0.0000       0.196359         5.3432   44-B
  92   0.0000       0.197855         5.3839   45-B

                 SPIN DOWN ORBITALS
  NO   OCC          E(Eh)            E(eV)    Irrep
   0   1.0000    -318.182685     -8658.1910    1-A
   1   1.0000     -88.015521     -2395.0241    1-B
   2   1.0000     -88.015511     -2395.0238    2-A
   3   1.0000     -88.014478     -2394.9957    2-B
   4   1.0000     -88.014467     -2394.9954    3-A
   5   1.0000     -38.012231     -1034.3654    4-A
   6   1.0000     -33.516071      -912.0187    3-B
   7   1.0000     -33.515256      -911.9965    5-A
   8   1.0000     -33.512299      -911.9160    4-B
   9   1.0000      -9.835016      -267.6244    6-A
  10   1.0000      -9.834685      -267.6154    5-B
  11   1.0000      -9.833646      -267.5871    7-A
  12   1.0000      -9.833315      -267.5781    6-B
  13   1.0000      -9.826877      -267.4029    8-A
  14   1.0000      -9.826452      -267.3914    7-B
  15   1.0000      -9.824564      -267.3400    9-A
  16   1.0000      -9.824134      -267.3283    8-B
  17   1.0000      -9.819571      -267.2041    9-B
  18   1.0000      -9.819567      -267.2040   10-A
  19   1.0000      -9.817248      -267.1409   10-B
  20   1.0000      -9.817244      -267.1408   11-A
  21   1.0000      -7.584528      -206.3855   11-B
  22   1.0000      -7.584519      -206.3853   12-A
  23   1.0000      -7.583524      -206.3582   12-B
  24   1.0000      -7.583514      -206.3579   13-A
  25   1.0000      -5.507520      -149.8672   13-B
  26   1.0000      -5.507519      -149.8672   14-A
  27   1.0000      -5.506520      -149.8400   14-B
  28   1.0000      -5.506519      -149.8400   15-A
  29   1.0000      -5.500897      -149.6870   15-B
  30   1.0000      -5.500897      -149.6870   16-A
  31   1.0000      -5.500559      -149.6778   17-A
  32   1.0000      -5.500558      -149.6778   16-B
  33   1.0000      -5.499928      -149.6606   17-B
  34   1.0000      -5.499927      -149.6606   18-A
  35   1.0000      -5.499497      -149.6489   19-A
  36   1.0000      -5.499497      -149.6489   18-B
  37   1.0000      -3.991989      -108.6275   20-A
  38   1.0000      -2.506482       -68.2049   19-B
  39   1.0000      -2.505121       -68.1678   20-B
  40   1.0000      -2.503522       -68.1243   21-A
  41   1.0000      -0.590245       -16.0614   22-A
  42   1.0000      -0.590036       -16.0557   23-A
  43   1.0000      -0.504069       -13.7164   24-A
  44   1.0000      -0.502814       -13.6823   25-A
  45   1.0000      -0.489857       -13.3297   21-B
  46   1.0000      -0.488604       -13.2956   22-B
  47   1.0000      -0.406524       -11.0621   23-B
  48   1.0000      -0.403703       -10.9853   24-B
  49   1.0000      -0.385174       -10.4811   26-A
  50   1.0000      -0.378337       -10.2951   27-A
  51   1.0000      -0.320907        -8.7323   28-A
  52   1.0000      -0.316525        -8.6131   29-A
  53   1.0000      -0.298099        -8.1117   25-B
  54   1.0000      -0.292424        -7.9573   26-B
  55   1.0000      -0.231421        -6.2973   30-A
  56   1.0000      -0.220151        -5.9906   31-A
  57   1.0000      -0.189836        -5.1657   32-A
  58   1.0000      -0.188854        -5.1390   33-A
  59   1.0000      -0.177024        -4.8171   27-B
  60   1.0000      -0.172785        -4.7017   28-B
  61   1.0000      -0.145446        -3.9578   29-B
  62   1.0000      -0.137520        -3.7421   30-B
  63   1.0000      -0.129762        -3.5310   34-A
  64   1.0000      -0.117741        -3.2039   31-B
  65   1.0000      -0.113947        -3.1006   32-B
  66   1.0000      -0.111922        -3.0455   35-A
  67   1.0000      -0.085523        -2.3272   36-A
  68   1.0000      -0.068510        -1.8642   33-B
  69   1.0000      -0.062091        -1.6896   37-A
  70   1.0000      -0.052361        -1.4248   34-B
  71   1.0000      -0.037696        -1.0258   35-B
  72   1.0000      -0.035197        -0.9578   36-B
  73   1.0000      -0.025791        -0.7018   38-A
  74   1.0000      -0.022548        -0.6136   39-A
  75   1.0000      -0.016974        -0.4619   40-A
  76   1.0000      -0.003992        -0.1086   37-B
  77   1.0000       0.005607         0.1526   41-A
  78   1.0000       0.009032         0.2458   42-A
  79   1.0000       0.012181         0.3315   38-B
  80   1.0000       0.024469         0.6658   43-A
  81   1.0000       0.032668         0.8890   44-A
  82   1.0000       0.041648         1.1333   39-B
  83   1.0000       0.051518         1.4019   45-A
  84   1.0000       0.056437         1.5357   46-A
  85   1.0000       0.062634         1.7044   40-B
  86   1.0000       0.089949         2.4476   41-B
  87   0.0000       0.136643         3.7182   42-B
  88   0.0000       0.182067         4.9543   47-A
  89   0.0000       0.182680         4.9710   48-A
  90   0.0000       0.193274         5.2593   43-B
  91   0.0000       0.198280         5.3955   44-B

MULLIKEN ATOMIC CHARGES AND SPIN POPULATIONS
--------------------------------------------
   0 Cu:    0.140956    0.375339
   1 S :   -0.423645    0.163580
   2 C :    0.022987   -0.007478
   3 S :   -0.415035    0.162697
   4 C :    0.042138   -0.007597
   5 S :   -0.423645    0.163580
   6 C :    0.022987   -0.007478
   7 S :   -0.415035    0.162697
   8 C :    0.042138   -0.007597
   9 C :   -0.084293   -0.001364
  10 C :   -0.084293   -0.001364
  11 C :   -0.131013   -0.001033
  12 H :    0.043448    0.001712
  13 C :   -0.131013   -0.001033
  14 H :    0.043448    0.001712
  15 H :    0.007502    0.001168
  16 H :    0.007502    0.001168
  17 C :   -0.090600   -0.001604
  18 C :   -0.090600   -0.001604
  19 C :   -0.138452   -0.000881
  20 H :    0.064876    0.002035
  21 C :   -0.138452   -0.000881
  22 H :    0.064876    0.002035
  23 H :    0.031609    0.001096
  24 H :    0.031609    0.001096
Sum of atomic charges         :   -2.0000000

LOEWDIN ATOMIC CHARGES AND SPIN POPULATIONS
-------------------------------------------
   0 Cu:   -0.893492    0.442003
   1 S :    0.009830    0.124569
   2 C :   -0.038250    0.005175
   3 S :    0.011068    0.124001
   4 C :   -0.042694    0.005317
   5 S :    0.009830    0.124569
   6 C :   -0.038250    0.005175
   7 S :    0.011068    0.124001
   8 C :   -0.042694    0.005317
   9 C :    0.284355    0.003708
  10 C :    0.284355    0.003708
  11 C :    0.279075   -0.000344
  12 H :   -0.422250    0.006068
  13 C :    0.279075   -0.000344
  14 H :   -0.422250    0.006068
  15 H :   -0.388260    0.000248
  16 H :   -0.388260    0.000248
  17 C :    0.306807    0.003898
  18 C :    0.306807    0.003898
  19 C :    0.312010   -0.000129
  20 H :   -0.446930    0.006285
  21 C :    0.312010   -0.000129
  22 H :   -0.446930    0.006285
  23 H :   -0.418015    0.000203
  24 H :   -0.418015    0.000203

  Mayer bond orders larger than 0.100000
B(  0-Cu,  1-S ) :   0.7029 B(  0-Cu,  3-S ) :   0.6998 B(  0-Cu,  5-S ) :   0.7029
B(  0-Cu,  7-S ) :   0.6998 B(  1-S ,  2-C ) :   1.1844 B(  2-C ,  6-C ) :   1.2447
B(  2-C , 17-C ) :   1.3181 B(  3-S ,  4-C ) :   1.1872 B(  4-C ,  8-C ) :   1.2346
B(  4-C , 10-C ) :   1.3190 B(  5-S ,  6-C ) :   1.1844 B(  6-C , 18-C ) :   1.3181
B(  7-S ,  8-C ) :   1.1872 B(  8-C ,  9-C ) :   1.3190 B(  9-C , 13-C ) :   1.3501
B(  9-C , 14-H ) :   0.9842 B( 10-C , 11-C ) :   1.3501 B( 10-C , 12-H ) :   0.9842
B( 11-C , 13-C ) :   1.3306 B( 11-C , 15-H ) :   1.0007 B( 13-C , 16-H ) :   1.0007
B( 17-C , 19-C ) :   1.3626 B( 17-C , 20-H ) :   0.9693 B( 18-C , 21-C ) :   1.3626
B( 18-C , 22-H ) :   0.9693 B( 19-C , 21-C ) :   1.3394 B( 19-C , 23-H ) :   0.9885
B( 21-C , 24-H ) :   0.9885

FINAL SINGLE POINT ENERGY     -3686.907229272821

DIPOLE MOMENT
-------------
                                X             Y             Z
Electronic contribution:      0.00000      -0.00000       0.22195
Nuclear contribution   :     -0.00000      -0.00000       0.00000
                        -----------------------------------------
Total Dipole Moment    :      0.00000      -0.00000       0.22196
                        -----------------------------------------
Magnitude (a.u.)       :      0.22196
Magnitude (Debye)      :      0.56417

Rotational constants in cm-1:     0.033402     0.004803     0.004200
Rotational constants in MHz :  1001.355906   144.005152   125.919615

                             ****ORCA TERMINATED NORMALLY****
TOTAL RUN TIME: 0 days 7 hours 9 minutes 55 seconds 616 msec
