                         Program Version 5.0.4 -  RELEASE  -
|  1> ! RIJCOSX nofrozencore ReducedPop printbasis
|  2> ! M06L ano-rcc-dzp autoaux
|  3>
|  4> %maxcore 5000
|  5> %basis
|  6> PCDTrimBas overlap
|  7> PCDTrimAuxJ Coulomb
|  8> PCDTrimAuxJK Coulomb
|  9> PCDTrimAuxC Coulomb
| 10> PCDThresh -1
| 11> end
| 12>
| 13> %basis
| 14> newgto Cu "ano-rcc-tzp" end
| 15> newgto S "ano-rcc-tzp" end
| 16> end
| 17>
| 18> %pal
| 19> nprocs 12
| 20> end
| 21>
| 22> % sym SymThresh 1e-2 end
| 23> * xyz -2 2
| 24> Cu 0.0011742945441126976 -0.0003054692659309822 9.639943588392352e-05
| 25> S 1.6998916684285168 -0.5984329683606796 -1.4610963651475353
| 26> C 1.0836948831238145 -0.5758412553463239 -2.92238015415131
| 27> S 1.3914733585174037 -0.19311341779028376 1.844061961680695
| 28> C 0.40834706156986167 0.2014505914681418 3.1855679338307
| 29> S -1.4101799481795978 0.19991389717405247 -1.8257808212523403
| 30> C -0.26686921335523306 -0.24863729551648925 -3.2803361348562143
| 31> S -1.7145837989748802 0.600170756409009 1.4385394030801888
| 32> C -0.9633991397672262 0.5559264892821053 3.0488179264659676
| 33> C -1.7722751103963432 0.8813006844311875 4.160167082572135
| 34> C 0.8759393986209655 0.20418460815538858 4.498082230644964
| 35> C 0.14703068873300051 0.510200733650115 5.630787556089609
| 36> H 1.9186788387709346 -0.06114657799063646 4.644296777554882
| 37> C -1.1869296373835398 0.8481328500334161 5.428350568014908
| 38> H -2.812278392503437 1.144496323172406 3.999590754942327
| 39> H 0.6165761212455955 0.4797122035694462 6.6083100345181505
| 40> H -1.7836280734202294 1.093651679331995 6.304465243397774
| 41> C 1.5962781432861433 -0.836341010839406 -4.183040424447158
| 42> C -1.0485772120540349 -0.16020453157462458 -4.521763508946586
| 43> C 1.272930262279087 -0.8785468199773832 -5.503685445354842
| 44> H 2.651732619612765 -1.1156327051632422 -4.144918976838
| 45> C -0.0740430711954386 -0.5199343000788379 -5.530004149455539
| 46> H -2.0982135848873953 0.11777281144595812 -4.557367484531405
| 47> H 2.0117606319740746 -1.1502116499479718 -6.257214505788757
| 48> H -0.3758668934779481 -0.5427759020319135 -6.59313955737543
| 49> *
| 50>
| 51> % eprnmr
| 52> gtensor true
| 53> Nuclei = all H {aiso,adip,aorb,fgrad,rho}
| 54> Nuclei = all Cu {aiso,adip,aorb,fgrad,rho}
| 55> end
| 56>
| 57>                          ****END OF INPUT****

CARTESIAN COORDINATES (ANGSTROEM)
---------------------------------
  Cu     0.000082    0.001215    0.000000
  S     -1.490067    1.778274    0.000000
  C     -2.950153    1.158832    0.000000
  S      1.834554    1.417204    0.000000
  C      3.195135    0.382469    0.000000
  S     -1.815944   -1.436801    0.000000
  C     -3.292189   -0.234807    0.000000
  S      1.467596   -1.793198    0.000000
  C      3.075615   -1.035895    0.000000
  C      4.202694   -1.887328    0.000000
  C      4.507692    0.849950    0.000000
  C      5.655186    0.081032    0.000000
  H      4.641008    1.927592    0.000000
  C      5.469179   -1.297384    0.000000
  H      4.054914   -2.961955    0.000000
  H      6.631160    0.554769    0.000000
  H      6.357160   -1.926188    0.000000
  C     -4.223381    1.705417    0.000000
  C     -4.529235   -1.028373    0.000000
  C     -5.545986    1.387368    0.000000
  H     -4.198830    2.797589    0.000000
  C     -5.554882   -0.006746    0.000000
  H     -4.551333   -2.114553    0.000000
  H     -6.312660    2.161763    0.000000
  H     -6.619054   -0.305768    0.000000

 Total Charge           Charge          ....   -2
 Multiplicity           Mult            ....    2
 Number of Electrons    NEL             ....  175
 Basis Dimension        Dim             ....  475

ORBITAL ENERGIES
----------------
                 SPIN UP ORBITALS
  NO   OCC          E(Eh)            E(eV)    Irrep
   0   1.0000    -318.181154     -8658.1494    1-A'
   1   1.0000     -88.017651     -2395.0821    2-A'
   2   1.0000     -88.015323     -2395.0187    3-A'
   3   1.0000     -88.013333     -2394.9646    4-A'
   4   1.0000     -88.006653     -2394.7828    5-A'
   5   1.0000     -38.026219     -1034.7460    6-A'
   6   1.0000     -33.529339      -912.3797    7-A'
   7   1.0000     -33.528476      -912.3562    8-A'
   8   1.0000     -33.514867      -911.9859    1-A"
   9   1.0000      -9.846980      -267.9499    9-A'
  10   1.0000      -9.841253      -267.7941   10-A'
  11   1.0000      -9.835252      -267.6308   11-A'
  12   1.0000      -9.834302      -267.6050   12-A'
  13   1.0000      -9.833839      -267.5924   13-A'
  14   1.0000      -9.831503      -267.5288   14-A'
  15   1.0000      -9.828113      -267.4366   15-A'
  16   1.0000      -9.824189      -267.3298   16-A'
  17   1.0000      -9.822755      -267.2907   17-A'
  18   1.0000      -9.819801      -267.2104   18-A'
  19   1.0000      -9.813520      -267.0395   19-A'
  20   1.0000      -9.811149      -266.9749   20-A'
  21   1.0000      -7.590786      -206.5558   21-A'
  22   1.0000      -7.584827      -206.3936   22-A'
  23   1.0000      -7.581285      -206.2972   23-A'
  24   1.0000      -7.573352      -206.0814   24-A'
  25   1.0000      -5.513551      -150.0314   25-A'
  26   1.0000      -5.507943      -149.8787   26-A'
  27   1.0000      -5.507885      -149.8772   27-A'
  28   1.0000      -5.506859      -149.8493    2-A"
  29   1.0000      -5.504570      -149.7870   28-A'
  30   1.0000      -5.502478      -149.7300   29-A'
  31   1.0000      -5.500924      -149.6878    3-A"
  32   1.0000      -5.499480      -149.6485   30-A'
  33   1.0000      -5.497307      -149.5893    4-A"
  34   1.0000      -5.496529      -149.5682   31-A'
  35   1.0000      -5.491929      -149.4430   32-A'
  36   1.0000      -5.489447      -149.3755    5-A"
  37   1.0000      -4.023842      -109.4943   33-A'
  38   1.0000      -2.545208       -69.2586   34-A'
  39   1.0000      -2.543662       -69.2166   35-A'
  40   1.0000      -2.516511       -68.4777    6-A"
  41   1.0000      -0.599383       -16.3100   36-A'
  42   1.0000      -0.590295       -16.0627   37-A'
  43   1.0000      -0.522165       -14.2088   38-A'
  44   1.0000      -0.505437       -13.7536   39-A'
  45   1.0000      -0.489427       -13.3180   40-A'
  46   1.0000      -0.484808       -13.1923   41-A'
  47   1.0000      -0.415198       -11.2981   42-A'
  48   1.0000      -0.408393       -11.1129   43-A'
  49   1.0000      -0.386030       -10.5044   44-A'
  50   1.0000      -0.377105       -10.2616   45-A'
  51   1.0000      -0.331772        -9.0280   46-A'
  52   1.0000      -0.321657        -8.7527   47-A'
  53   1.0000      -0.297763        -8.1026   48-A'
  54   1.0000      -0.285572        -7.7708   49-A'
  55   1.0000      -0.244468        -6.6523   50-A'
  56   1.0000      -0.231203        -6.2914   51-A'
  57   1.0000      -0.189495        -5.1564   52-A'
  58   1.0000      -0.189218        -5.1489   53-A'
  59   1.0000      -0.176967        -4.8155   54-A'
  60   1.0000      -0.175681        -4.7805   55-A'
  61   1.0000      -0.155897        -4.2422   56-A'
  62   1.0000      -0.147383        -4.0105   57-A'
  63   1.0000      -0.141776        -3.8579   58-A'
  64   1.0000      -0.123996        -3.3741    7-A"
  65   1.0000      -0.117537        -3.1983    8-A"
  66   1.0000      -0.114537        -3.1167   59-A'
  67   1.0000      -0.076565        -2.0834   60-A'
  68   1.0000      -0.064330        -1.7505   61-A'
  69   1.0000      -0.048989        -1.3331    9-A"
  70   1.0000      -0.047430        -1.2906   62-A'
  71   1.0000      -0.041220        -1.1216   63-A'
  72   1.0000      -0.038976        -1.0606   10-A"
  73   1.0000      -0.025233        -0.6866   64-A'
  74   1.0000      -0.023745        -0.6461   11-A"
  75   1.0000      -0.017369        -0.4726   65-A'
  76   1.0000      -0.016532        -0.4499   12-A"
  77   1.0000      -0.002606        -0.0709   13-A"
  78   1.0000       0.001132         0.0308   14-A"
  79   1.0000       0.002843         0.0774   66-A'
  80   1.0000       0.018848         0.5129   67-A'
  81   1.0000       0.021173         0.5761   68-A'
  82   1.0000       0.035066         0.9542   69-A'
  83   1.0000       0.050835         1.3833   15-A"
  84   1.0000       0.053193         1.4474   16-A"
  85   1.0000       0.062037         1.6881   17-A"
  86   1.0000       0.087416         2.3787   18-A"
  87   1.0000       0.105189         2.8623   70-A'
  88   0.0000       0.178168         4.8482   71-A'
  89   0.0000       0.181219         4.9312   72-A'
  90   0.0000       0.196901         5.3579   73-A'
  91   0.0000       0.197567         5.3761   19-A"
  92   0.0000       0.198771         5.4088   74-A'

                 SPIN DOWN ORBITALS
  NO   OCC          E(Eh)            E(eV)    Irrep
   0   1.0000    -318.180981     -8658.1447    1-A'
   1   1.0000     -88.016765     -2395.0579    2-A'
   2   1.0000     -88.014387     -2394.9932    3-A'
   3   1.0000     -88.012117     -2394.9315    4-A'
   4   1.0000     -88.005422     -2394.7493    5-A'
   5   1.0000     -38.010511     -1034.3186    6-A'
   6   1.0000     -33.514331      -911.9713    7-A'
   7   1.0000     -33.513498      -911.9487    8-A'
   8   1.0000     -33.510589      -911.8695    1-A"
   9   1.0000      -9.847031      -267.9513    9-A'
  10   1.0000      -9.841240      -267.7937   10-A'
  11   1.0000      -9.835376      -267.6342   11-A'
  12   1.0000      -9.834253      -267.6036   12-A'
  13   1.0000      -9.833955      -267.5955   13-A'
  14   1.0000      -9.831610      -267.5317   14-A'
  15   1.0000      -9.828102      -267.4363   15-A'
  16   1.0000      -9.824155      -267.3289   16-A'
  17   1.0000      -9.822742      -267.2904   17-A'
  18   1.0000      -9.819743      -267.2088   18-A'
  19   1.0000      -9.813460      -267.0378   19-A'
  20   1.0000      -9.811012      -266.9712   20-A'
  21   1.0000      -7.590184      -206.5394   21-A'
  22   1.0000      -7.584189      -206.3763   22-A'
  23   1.0000      -7.580455      -206.2747   23-A'
  24   1.0000      -7.572521      -206.0588   24-A'
  25   1.0000      -5.512766      -150.0100   25-A'
  26   1.0000      -5.507133      -149.8567   26-A'
  27   1.0000      -5.506181      -149.8308    2-A"
  28   1.0000      -5.506072      -149.8278   27-A'
  29   1.0000      -5.503503      -149.7579   28-A'
  30   1.0000      -5.500516      -149.6766   29-A'
  31   1.0000      -5.500213      -149.6684    3-A"
  32   1.0000      -5.496947      -149.5795   30-A'
  33   1.0000      -5.496382      -149.5642    4-A"
  34   1.0000      -5.495414      -149.5378   31-A'
  35   1.0000      -5.489398      -149.3741   32-A'
  36   1.0000      -5.488524      -149.3503    5-A"
  37   1.0000      -3.990491      -108.5868   33-A'
  38   1.0000      -2.504917       -68.1622    6-A"
  39   1.0000      -2.503701       -68.1292   34-A'
  40   1.0000      -2.501959       -68.0818   35-A'
  41   1.0000      -0.598919       -16.2974   36-A'
  42   1.0000      -0.589937       -16.0530   37-A'
  43   1.0000      -0.520674       -14.1683   38-A'
  44   1.0000      -0.504182       -13.7195   39-A'
  45   1.0000      -0.488393       -13.2898   40-A'
  46   1.0000      -0.484052       -13.1717   41-A'
  47   1.0000      -0.412409       -11.2222   42-A'
  48   1.0000      -0.404507       -11.0072   43-A'
  49   1.0000      -0.382389       -10.4053   44-A'
  50   1.0000      -0.372515       -10.1366   45-A'
  51   1.0000      -0.331149        -9.0110   46-A'
  52   1.0000      -0.320375        -8.7178   47-A'
  53   1.0000      -0.295679        -8.0458   48-A'
  54   1.0000      -0.282927        -7.6988   49-A'
  55   1.0000      -0.243947        -6.6381   50-A'
  56   1.0000      -0.230558        -6.2738   51-A'
  57   1.0000      -0.189097        -5.1456   52-A'
  58   1.0000      -0.188353        -5.1253   53-A'
  59   1.0000      -0.176014        -4.7896   54-A'
  60   1.0000      -0.174907        -4.7595   55-A'
  61   1.0000      -0.154811        -4.2126   56-A'
  62   1.0000      -0.146270        -3.9802   57-A'
  63   1.0000      -0.139684        -3.8010   58-A'
  64   1.0000      -0.123743        -3.3672    7-A"
  65   1.0000      -0.117359        -3.1935    8-A"
  66   1.0000      -0.112583        -3.0635   59-A'
  67   1.0000      -0.074186        -2.0187   60-A'
  68   1.0000      -0.058517        -1.5923   61-A'
  69   1.0000      -0.047692        -1.2978    9-A"
  70   1.0000      -0.044606        -1.2138   62-A'
  71   1.0000      -0.037541        -1.0215   10-A"
  72   1.0000      -0.021367        -0.5814   63-A'
  73   1.0000      -0.021042        -0.5726   11-A"
  74   1.0000      -0.015807        -0.4301   64-A'
  75   1.0000      -0.015300        -0.4163   12-A"
  76   1.0000      -0.002777        -0.0756   65-A'
  77   1.0000       0.006995         0.1903   13-A"
  78   1.0000       0.013154         0.3579   66-A'
  79   1.0000       0.013329         0.3627   14-A"
  80   1.0000       0.027220         0.7407   67-A'
  81   1.0000       0.034215         0.9310   68-A'
  82   1.0000       0.043541         1.1848   69-A'
  83   1.0000       0.053707         1.4614   15-A"
  84   1.0000       0.058362         1.5881   16-A"
  85   1.0000       0.064125         1.7449   17-A"
  86   1.0000       0.091728         2.4960   18-A"
  87   0.0000       0.137936         3.7534   70-A'
  88   0.0000       0.179564         4.8862   71-A'
  89   0.0000       0.182388         4.9630   72-A'
  90   0.0000       0.197607         5.3772   19-A"
  91   0.0000       0.198869         5.4115   73-A'

MULLIKEN ATOMIC CHARGES AND SPIN POPULATIONS
--------------------------------------------
   0 Cu:    0.141049    0.372709
   1 S :   -0.409757    0.128418
   2 C :    0.032343   -0.006083
   3 S :   -0.436926    0.143465
   4 C :    0.011226   -0.006269
   5 S :   -0.463342    0.195481
   6 C :    0.053933   -0.008195
   7 S :   -0.415416    0.183988
   8 C :    0.037941   -0.008608
   9 C :   -0.118832   -0.002170
  10 C :   -0.063794   -0.001090
  11 C :   -0.154834   -0.001343
  12 H :    0.072736    0.001552
  13 C :   -0.117406   -0.000358
  14 H :    0.055084    0.002546
  15 H :    0.022343    0.001018
  16 H :    0.038865    0.001211
  17 C :   -0.020045    0.001896
  18 C :   -0.161107   -0.003837
  19 C :   -0.159020   -0.001301
  20 H :    0.071105    0.000581
  21 C :   -0.093057    0.000450
  22 H :    0.036787    0.003599
  23 H :    0.006870    0.001173
  24 H :    0.033255    0.001166
Sum of atomic charges         :   -2.0000000

LOEWDIN ATOMIC CHARGES AND SPIN POPULATIONS
-------------------------------------------
   0 Cu:   -0.891596    0.439009
   1 S :    0.073630    0.098901
   2 C :   -0.141987    0.010074
   3 S :    0.022022    0.107634
   4 C :   -0.061517    0.005420
   5 S :   -0.049124    0.146344
   6 C :    0.059184    0.002539
   7 S :   -0.003820    0.142461
   8 C :   -0.014920    0.004846
   9 C :    0.312395    0.004558
  10 C :    0.301439    0.003303
  11 C :    0.313611   -0.000436
  12 H :   -0.452014    0.005223
  13 C :    0.309271    0.000238
  14 H :   -0.442797    0.007317
  15 H :   -0.407610    0.000095
  16 H :   -0.428010    0.000347
  17 C :    0.282902    0.004404
  18 C :    0.342856    0.004298
  19 C :    0.326499   -0.000300
  20 H :   -0.481170    0.003813
  21 C :    0.300192    0.000592
  22 H :   -0.438380    0.008702
  23 H :   -0.364122    0.000182
  24 H :   -0.466933    0.000437

  Mayer bond orders larger than 0.100000
B(  0-Cu,  1-S ) :   0.6502 B(  0-Cu,  3-S ) :   0.6899 B(  0-Cu,  5-S ) :   0.7417
B(  0-Cu,  7-S ) :   0.7137 B(  1-S ,  2-C ) :   1.3645 B(  2-C ,  6-C ) :   1.2158
B(  2-C , 17-C ) :   1.2428 B(  3-S ,  4-C ) :   1.2136 B(  4-C ,  8-C ) :   1.2435
B(  4-C , 10-C ) :   1.3109 B(  5-S ,  6-C ) :   1.0756 B(  6-C , 18-C ) :   1.3091
B(  7-S ,  8-C ) :   1.1583 B(  8-C ,  9-C ) :   1.3222 B(  9-C , 13-C ) :   1.3681
B(  9-C , 14-H ) :   0.9773 B( 10-C , 11-C ) :   1.3540 B( 10-C , 12-H ) :   0.9633
B( 11-C , 13-C ) :   1.3395 B( 11-C , 15-H ) :   0.9958 B( 13-C , 16-H ) :   0.9820
B( 17-C , 19-C ) :   1.3156 B( 17-C , 20-H ) :   0.9558 B( 18-C , 21-C ) :   1.3705
B( 18-C , 22-H ) :   0.9936 B( 19-C , 21-C ) :   1.3341 B( 19-C , 23-H ) :   1.0087
B( 21-C , 24-H ) :   0.9831

FINAL SINGLE POINT ENERGY     -3686.811442787505

DIPOLE MOMENT
-------------
                                X             Y             Z
Electronic contribution:      0.06961       0.09552      -0.00000
Nuclear contribution   :      0.00191       0.11971       0.00000
                        -----------------------------------------
Total Dipole Moment    :      0.07151       0.21523      -0.00000
                        -----------------------------------------
Magnitude (a.u.)       :      0.22680
Magnitude (Debye)      :      0.57648

Rotational constants in cm-1:     0.033378     0.004804     0.004199
Rotational constants in MHz :  1000.640206   144.015317   125.895969

                             ****ORCA TERMINATED NORMALLY****
TOTAL RUN TIME: 0 days 6 hours 41 minutes 0 seconds 566 msec
