                         Program Version 5.0.4 -  RELEASE  -
|  1> ! RIJCOSX nofrozencore ReducedPop printbasis
|  2> ! M06L ano-rcc-dzp autoaux
|  3>
|  4> %maxcore 5000
|  5> %basis
|  6> PCDTrimBas overlap
|  7> PCDTrimAuxJ Coulomb
|  8> PCDTrimAuxJK Coulomb
|  9> PCDTrimAuxC Coulomb
| 10> PCDThresh -1
| 11> end
| 12>
| 13> %basis
| 14> newgto Cu "ano-rcc-tzp" end
| 15> newgto S "ano-rcc-tzp" end
| 16> end
| 17>
| 18> %pal
| 19> nprocs 8
| 20> end
| 21>
| 22> % sym SymThresh 1e-2 end
| 23> * xyz -2 2
| 24> Cu -5.1354882788154816e-05 -0.0002920445446503213 3.5580828828648416e-06
| 25> S -0.6197837799572659 -1.6927113164839456 -1.4584823320716198
| 26> C -0.624767938130507 -3.073942534889207 -0.3492937507014271
| 27> S -0.08638084042945389 1.5801542579988577 -1.6917473198396917
| 28> C 0.317275714625311 3.1502328557852 -1.1251410058203448
| 29> S 0.0873375491358411 -1.5793075873591798 1.6954462794608598
| 30> C -0.3688484400121876 -3.0329565248948485 0.7922143559437294
| 31> S 0.6190354066521088 1.69323655921554 1.4546155449726144
| 32> C 0.7189095950738995 3.217580361469405 0.6638348822125053
| 33> C 0.9802663106401917 4.26316284603909 1.0069292210735328
| 34> C 0.3925241792149785 4.173065355957089 -1.6179502552069822
| 35> C 0.7754469763792051 5.533443352425042 -0.9746735324796946
| 36> H 0.1296258448868679 3.9762488015992257 -2.6637775347312846
| 37> C 1.0322088030137604 5.57507167805383 0.17017582831570288
| 38> H 1.1948219266906708 4.162713406216338 2.074429817726057
| 39> H 0.7394611852036514 6.302850223567614 -1.7705242328205741
| 40> H 1.3266060140368179 6.399907784172044 0.8459080602053679
| 41> C -1.0180447139174353 -4.426695197990641 -1.046362460301576
| 42> C -0.40680837087355876 -4.329424611760869 1.6805157872365983
| 43> C -1.0592125648465014 -5.50956331468438 -0.3478599614720893
| 44> H -1.2685936810065626 -4.545705806519218 -2.0992608713765613
| 45> C -0.7251292494428139 -5.455848419344761 1.1421187233877088
| 46> H -0.18171244545234716 -4.3668369184221545 2.7447481077146274
| 47> H -1.315113486250634 -6.5204803689985535 -0.694315249642538
| 48> H -0.7931711739915352 -6.436382530390598 1.6333498225979026
| 49> *
| 50>
| 51> % eprnmr
| 52> gtensor true
| 53> Nuclei = all H {aiso,adip,aorb,fgrad,rho}
| 54> Nuclei = all Cu {aiso,adip,aorb,fgrad,rho}
| 55> end
| 56>
| 57>                          ****END OF INPUT****

CARTESIAN COORDINATES (ANGSTROEM)
---------------------------------
  Cu    -0.000296   -0.000002    0.000000
  S     -1.747078   -1.524562    0.000000
  C     -3.128668   -0.415809    0.000000
  S      1.572473   -1.701084    0.000000
  C      3.177933   -1.091474    0.000000
  S     -1.571542    1.704885    0.000000
  C     -3.065195    0.753030    0.000000
  S      1.747538    1.520616    0.000000
  C      3.280571    0.740396    0.000000
  C      4.349061    1.111332    0.000000
  C      4.207320   -1.576317    0.000000
  C      5.601269   -0.892236    0.000000
  H      3.987412   -2.650211    0.000000
  C      5.665459    0.280035    0.000000
  H      4.267471    2.201756    0.000000
  H      6.367470   -1.691984    0.000000
  H      6.516118    0.987154    0.000000
  C     -4.515903   -1.154789    0.000000
  C     -4.364925    1.637368    0.000000
  C     -5.602327   -0.460608    0.000000
  H     -4.656924   -2.234440    0.000000
  C     -5.519257    1.065050    0.000000
  H     -4.382554    2.725645    0.000000
  H     -6.635673   -0.834325    0.000000
  H     -6.505714    1.549083    0.000000

 Total Charge           Charge          ....   -2
 Multiplicity           Mult            ....    2
 Number of Electrons    NEL             ....  175
 Basis Dimension        Dim             ....  475

ORBITAL ENERGIES
----------------
                 SPIN UP ORBITALS
  NO   OCC          E(Eh)            E(eV)    Irrep
   0   1.0000    -318.174620     -8657.9716    1-A'
   1   1.0000     -88.007800     -2394.8140    2-A'
   2   1.0000     -88.007786     -2394.8136    3-A'
   3   1.0000     -88.003973     -2394.7098    4-A'
   4   1.0000     -88.003534     -2394.6979    5-A'
   5   1.0000     -38.019531     -1034.5640    6-A'
   6   1.0000     -33.522716      -912.1995    7-A'
   7   1.0000     -33.521957      -912.1788    8-A'
   8   1.0000     -33.507971      -911.7982    1-A"
   9   1.0000      -9.834275      -267.6042    9-A'
  10   1.0000      -9.834104      -267.5996   10-A'
  11   1.0000      -9.832359      -267.5521   11-A'
  12   1.0000      -9.832208      -267.5480   12-A'
  13   1.0000      -9.824929      -267.3499   13-A'
  14   1.0000      -9.822019      -267.2707   14-A'
  15   1.0000      -9.816598      -267.1232   15-A'
  16   1.0000      -9.813582      -267.0411   16-A'
  17   1.0000      -9.799277      -266.6519   17-A'
  18   1.0000      -9.797942      -266.6156   18-A'
  19   1.0000      -9.776841      -266.0414   19-A'
  20   1.0000      -9.776085      -266.0208   20-A'
  21   1.0000      -7.576161      -206.1578   21-A'
  22   1.0000      -7.576146      -206.1574   22-A'
  23   1.0000      -7.573133      -206.0754   23-A'
  24   1.0000      -7.572640      -206.0620   24-A'
  25   1.0000      -5.499792      -149.6570   25-A'
  26   1.0000      -5.499775      -149.6565   26-A'
  27   1.0000      -5.496434      -149.5656   27-A'
  28   1.0000      -5.495960      -149.5527   28-A'
  29   1.0000      -5.494220      -149.5053   29-A'
  30   1.0000      -5.494212      -149.5051   30-A'
  31   1.0000      -5.491749      -149.4381    2-A"
  32   1.0000      -5.491742      -149.4379    3-A"
  33   1.0000      -5.491107      -149.4206   31-A'
  34   1.0000      -5.490634      -149.4078   32-A'
  35   1.0000      -5.488836      -149.3588    4-A"
  36   1.0000      -5.488323      -149.3449    5-A"
  37   1.0000      -4.017152      -109.3123   33-A'
  38   1.0000      -2.538650       -69.0802   34-A'
  39   1.0000      -2.537206       -69.0409   35-A'
  40   1.0000      -2.509443       -68.2854    6-A"
  41   1.0000      -0.598499       -16.2860   36-A'
  42   1.0000      -0.595375       -16.2010   37-A'
  43   1.0000      -0.523509       -14.2454   38-A'
  44   1.0000      -0.522615       -14.2211   39-A'
  45   1.0000      -0.517599       -14.0846   40-A'
  46   1.0000      -0.496440       -13.5088   41-A'
  47   1.0000      -0.404686       -11.0121   42-A'
  48   1.0000      -0.398546       -10.8450   43-A'
  49   1.0000      -0.387934       -10.5562   44-A'
  50   1.0000      -0.374291       -10.1850   45-A'
  51   1.0000      -0.346635        -9.4324   46-A'
  52   1.0000      -0.317337        -8.6352   47-A'
  53   1.0000      -0.275126        -7.4865   48-A'
  54   1.0000      -0.272239        -7.4080   49-A'
  55   1.0000      -0.244100        -6.6423   50-A'
  56   1.0000      -0.223211        -6.0739   51-A'
  57   1.0000      -0.200119        -5.4455   52-A'
  58   1.0000      -0.195913        -5.3311   53-A'
  59   1.0000      -0.180296        -4.9061   54-A'
  60   1.0000      -0.166686        -4.5358   55-A'
  61   1.0000      -0.158562        -4.3147   56-A'
  62   1.0000      -0.132643        -3.6094   57-A'
  63   1.0000      -0.128687        -3.5017   58-A'
  64   1.0000      -0.126272        -3.4360    7-A"
  65   1.0000      -0.123750        -3.3674    8-A"
  66   1.0000      -0.103388        -2.8133   59-A'
  67   1.0000      -0.080568        -2.1924   60-A'
  68   1.0000      -0.066850        -1.8191   61-A'
  69   1.0000      -0.053227        -1.4484    9-A"
  70   1.0000      -0.049519        -1.3475   10-A"
  71   1.0000      -0.046328        -1.2607   62-A'
  72   1.0000      -0.044774        -1.2183   11-A"
  73   1.0000      -0.042982        -1.1696   63-A'
  74   1.0000      -0.022420        -0.6101   12-A"
  75   1.0000      -0.020166        -0.5487   64-A'
  76   1.0000      -0.005398        -0.1469   65-A'
  77   1.0000      -0.001780        -0.0484   13-A"
  78   1.0000       0.003837         0.1044   14-A"
  79   1.0000       0.006591         0.1793   66-A'
  80   1.0000       0.023277         0.6334   67-A'
  81   1.0000       0.043344         1.1795   68-A'
  82   1.0000       0.050132         1.3642   15-A"
  83   1.0000       0.053037         1.4432   69-A'
  84   1.0000       0.056965         1.5501   16-A"
  85   1.0000       0.070104         1.9076   17-A"
  86   1.0000       0.086751         2.3606   18-A"
  87   1.0000       0.110676         3.0117   70-A'
  88   0.0000       0.173966         4.7339   71-A'
  89   0.0000       0.179213         4.8766   72-A'
  90   0.0000       0.186057         5.0629   19-A"
  91   0.0000       0.189806         5.1649   73-A'
  92   0.0000       0.192238         5.2311   74-A'

                 SPIN DOWN ORBITALS
  NO   OCC          E(Eh)            E(eV)    Irrep
   0   1.0000    -318.174447     -8657.9669    1-A'
   1   1.0000     -88.006738     -2394.7851    2-A'
   2   1.0000     -88.006725     -2394.7847    3-A'
   3   1.0000     -88.002966     -2394.6825    4-A'
   4   1.0000     -88.002522     -2394.6704    5-A'
   5   1.0000     -38.003800     -1034.1360    6-A'
   6   1.0000     -33.507684      -911.7904    7-A'
   7   1.0000     -33.506949      -911.7704    8-A'
   8   1.0000     -33.503701      -911.6820    1-A"
   9   1.0000      -9.834193      -267.6020    9-A'
  10   1.0000      -9.834021      -267.5973   10-A'
  11   1.0000      -9.832338      -267.5515   11-A'
  12   1.0000      -9.832188      -267.5474   12-A'
  13   1.0000      -9.824849      -267.3477   13-A'
  14   1.0000      -9.821938      -267.2685   14-A'
  15   1.0000      -9.816741      -267.1271   15-A'
  16   1.0000      -9.813727      -267.0451   16-A'
  17   1.0000      -9.799267      -266.6516   17-A'
  18   1.0000      -9.797935      -266.6154   18-A'
  19   1.0000      -9.776812      -266.0406   19-A'
  20   1.0000      -9.776060      -266.0201   20-A'
  21   1.0000      -7.575430      -206.1379   21-A'
  22   1.0000      -7.575417      -206.1376   22-A'
  23   1.0000      -7.572454      -206.0569   23-A'
  24   1.0000      -7.571958      -206.0435   24-A'
  25   1.0000      -5.498881      -149.6322   25-A'
  26   1.0000      -5.498869      -149.6318   26-A'
  27   1.0000      -5.495580      -149.5423   27-A'
  28   1.0000      -5.495103      -149.5294   28-A'
  29   1.0000      -5.491935      -149.4431   29-A'
  30   1.0000      -5.491933      -149.4431   30-A'
  31   1.0000      -5.490958      -149.4166    2-A"
  32   1.0000      -5.490954      -149.4164    3-A"
  33   1.0000      -5.489020      -149.3638   31-A'
  34   1.0000      -5.488534      -149.3506   32-A'
  35   1.0000      -5.488076      -149.3382    4-A"
  36   1.0000      -5.487561      -149.3241    5-A"
  37   1.0000      -3.983652      -108.4007   33-A'
  38   1.0000      -2.497862       -67.9703    6-A"
  39   1.0000      -2.496884       -67.9437   34-A'
  40   1.0000      -2.495392       -67.9031   35-A'
  41   1.0000      -0.598244       -16.2791   36-A'
  42   1.0000      -0.594946       -16.1893   37-A'
  43   1.0000      -0.522873       -14.2281   38-A'
  44   1.0000      -0.521503       -14.1908   39-A'
  45   1.0000      -0.516536       -14.0556   40-A'
  46   1.0000      -0.496043       -13.4980   41-A'
  47   1.0000      -0.399807       -10.8793   42-A'
  48   1.0000      -0.394095       -10.7239   43-A'
  49   1.0000      -0.383482       -10.4351   44-A'
  50   1.0000      -0.370373       -10.0784   45-A'
  51   1.0000      -0.345572        -9.4035   46-A'
  52   1.0000      -0.315812        -8.5937   47-A'
  53   1.0000      -0.273470        -7.4415   48-A'
  54   1.0000      -0.271614        -7.3910   49-A'
  55   1.0000      -0.243662        -6.6304   50-A'
  56   1.0000      -0.222227        -6.0471   51-A'
  57   1.0000      -0.199397        -5.4259   52-A'
  58   1.0000      -0.195002        -5.3063   53-A'
  59   1.0000      -0.179645        -4.8884   54-A'
  60   1.0000      -0.165775        -4.5110   55-A'
  61   1.0000      -0.157972        -4.2986   56-A'
  62   1.0000      -0.131221        -3.5707   57-A'
  63   1.0000      -0.126157        -3.4329    7-A"
  64   1.0000      -0.125434        -3.4132   58-A'
  65   1.0000      -0.123552        -3.3620    8-A"
  66   1.0000      -0.101921        -2.7734   59-A'
  67   1.0000      -0.079668        -2.1679   60-A'
  68   1.0000      -0.064026        -1.7422   61-A'
  69   1.0000      -0.052631        -1.4322    9-A"
  70   1.0000      -0.048625        -1.3232   10-A"
  71   1.0000      -0.043736        -1.1901   11-A"
  72   1.0000      -0.037863        -1.0303   62-A'
  73   1.0000      -0.031159        -0.8479   63-A'
  74   1.0000      -0.021861        -0.5949   12-A"
  75   1.0000       0.002315         0.0630   64-A'
  76   1.0000       0.005270         0.1434   65-A'
  77   1.0000       0.009425         0.2565   13-A"
  78   1.0000       0.016308         0.4438   66-A'
  79   1.0000       0.016334         0.4445   14-A"
  80   1.0000       0.038861         1.0575   67-A'
  81   1.0000       0.051504         1.4015   68-A'
  82   1.0000       0.055265         1.5038   15-A"
  83   1.0000       0.057181         1.5560   69-A'
  84   1.0000       0.059260         1.6125   16-A"
  85   1.0000       0.074427         2.0253   17-A"
  86   1.0000       0.091516         2.4903   18-A"
  87   0.0000       0.142981         3.8907   70-A'
  88   0.0000       0.174726         4.7545   71-A'
  89   0.0000       0.183469         4.9924   72-A'
  90   0.0000       0.186111         5.0643   19-A"
  91   0.0000       0.193626         5.2688   73-A'

MULLIKEN ATOMIC CHARGES AND SPIN POPULATIONS
--------------------------------------------
   0 Cu:    0.148711    0.373914
   1 S :   -0.471310    0.166146
   2 C :    0.048796   -0.010703
   3 S :   -0.454583    0.146652
   4 C :    0.107704    0.002545
   5 S :   -0.469912    0.166497
   6 C :    0.048905   -0.010811
   7 S :   -0.460928    0.147696
   8 C :    0.106905    0.002392
   9 C :   -0.154219   -0.003421
  10 C :   -0.158634   -0.003166
  11 C :   -0.112262    0.001183
  12 H :    0.071031    0.003792
  13 C :   -0.116590    0.001270
  14 H :    0.070061    0.003916
  15 H :    0.004666    0.003481
  16 H :    0.004926    0.003465
  17 C :   -0.120070    0.001132
  18 C :   -0.118974    0.001204
  19 C :   -0.069327   -0.001008
  20 H :    0.054205    0.001677
  21 C :   -0.070255   -0.001018
  22 H :    0.054249    0.001669
  23 H :    0.028373    0.000748
  24 H :    0.028531    0.000749
Sum of atomic charges         :   -2.0000000

LOEWDIN ATOMIC CHARGES AND SPIN POPULATIONS
-------------------------------------------
   0 Cu:   -0.895206    0.438709
   1 S :   -0.003910    0.125871
   2 C :   -0.095305    0.002302
   3 S :    0.040169    0.114325
   4 C :   -0.029239    0.010128
   5 S :   -0.003294    0.126189
   6 C :   -0.095172    0.002316
   7 S :    0.037588    0.115133
   8 C :   -0.031429    0.009980
   9 C :    0.241748    0.003718
  10 C :    0.243624    0.003745
  11 C :    0.297870    0.002417
  12 H :   -0.472333    0.009192
  13 C :    0.300091    0.002452
  14 H :   -0.469072    0.008996
  15 H :   -0.375623    0.001356
  16 H :   -0.376356    0.001370
  17 C :    0.359420    0.005543
  18 C :    0.359266    0.005585
  19 C :    0.313060   -0.000103
  20 H :   -0.429134    0.005241
  21 C :    0.312834   -0.000098
  22 H :   -0.429449    0.005302
  23 H :   -0.400057    0.000165
  24 H :   -0.400092    0.000167

  Mayer bond orders larger than 0.100000
B(  0-Cu,  1-S ) :   0.7162 B(  0-Cu,  3-S ) :   0.6783 B(  0-Cu,  5-S ) :   0.7163
B(  0-Cu,  7-S ) :   0.6804 B(  1-S ,  2-C ) :   1.1017 B(  2-C ,  6-C ) :   1.5284
B(  2-C , 17-C ) :   1.0983 B(  3-S ,  4-C ) :   1.1719 B(  4-C ,  8-C ) :   0.8696
B(  4-C , 10-C ) :   1.6717 B(  5-S ,  6-C ) :   1.1017 B(  6-C , 18-C ) :   1.0976
B(  7-S ,  8-C ) :   1.1669 B(  8-C ,  9-C ) :   1.6749 B(  9-C , 13-C ) :   1.0495
B(  9-C , 14-H ) :   0.9443 B( 10-C , 11-C ) :   1.0517 B( 10-C , 12-H ) :   0.9428
B( 11-C , 13-C ) :   1.6797 B( 11-C , 15-H ) :   0.9819 B( 13-C , 16-H ) :   0.9825
B( 17-C , 19-C ) :   1.6176 B( 17-C , 20-H ) :   0.9815 B( 18-C , 21-C ) :   1.6175
B( 18-C , 22-H ) :   0.9812 B( 19-C , 21-C ) :   1.1154 B( 19-C , 23-H ) :   0.9743
B( 21-C , 24-H ) :   0.9745

FINAL SINGLE POINT ENERGY     -3686.540225828741

DIPOLE MOMENT
-------------
                                X             Y             Z
Electronic contribution:      0.44970      -0.02254      -0.00000
Nuclear contribution   :     -0.97645       0.04944       0.00000
                        -----------------------------------------
Total Dipole Moment    :     -0.52676       0.02689      -0.00000
                        -----------------------------------------
Magnitude (a.u.)       :      0.52744
Magnitude (Debye)      :      1.34065

Rotational constants in cm-1:     0.033277     0.004804     0.004198
Rotational constants in MHz :   997.608631   144.017016   125.849150

                             ****ORCA TERMINATED NORMALLY****
TOTAL RUN TIME: 0 days 6 hours 16 minutes 57 seconds 87 msec
