                         Program Version 5.0.4 -  RELEASE  -
|  1> ! RIJCOSX nofrozencore ReducedPop printbasis
|  2> ! M06L ano-rcc-dzp autoaux
|  3>
|  4> %maxcore 5000
|  5> %basis
|  6> PCDTrimBas overlap
|  7> PCDTrimAuxJ Coulomb
|  8> PCDTrimAuxJK Coulomb
|  9> PCDTrimAuxC Coulomb
| 10> PCDThresh -1
| 11> end
| 12>
| 13> %basis
| 14> newgto Cu "ano-rcc-tzp" end
| 15> newgto S "ano-rcc-tzp" end
| 16> end
| 17>
| 18> %pal
| 19> nprocs 12
| 20> end
| 21>
| 22> % sym SymThresh 1e-2 end
| 23> * xyz -2 2
| 24> Cu 4.3546295012213395e-05 0.00021878366296996558 1.6044594359278392e-05
| 25> S -0.6257697875885563 -0.7436551049205469 2.222281026398998
| 26> C -0.5045551378652847 0.6938424042678676 3.113569656867585
| 27> S -0.2653972013520837 -2.0417217879367584 -0.8216102787598326
| 28> C 0.12149629043086725 -1.9556591921379076 -2.577470193583438
| 29> S 0.26525807141021807 2.0401638124748933 0.820681253830402
| 30> C -0.12141231851413754 1.955821630247984 2.5772360043915534
| 31> S 0.6253159287218296 0.7425928960756735 -2.2212035411327573
| 32> C 0.5047092777289129 -0.6938059563078075 -3.114266990681944
| 33> C 0.8358382334765411 -0.4596504244000577 -4.453037650041672
| 34> C 0.1114232397580369 -2.969137410586079 -3.5651237693934306
| 35> C 0.44678581140337137 -2.7273853561347203 -4.916307663411182
| 36> H -0.16542909222628838 -3.9929550880241598 -3.2919615498587107
| 37> C 0.815234755782228 -1.4679809691348957 -5.385246373150208
| 38> H 1.1087970608083444 0.5669968624193762 -4.704753182343401
| 39> H 0.4122393571013823 -3.5656933105530224 -5.6083252174993445
| 40> H 1.0708857522245083 -1.295212497537324 -6.427044651049009
| 41> C -0.8354456733172394 0.4608473314197957 4.4523899401471745
| 42> C -0.11136273828742503 2.9698859265044146 3.5656003367990006
| 43> C -0.8148506259984649 1.4696901170218668 5.385162290989861
| 44> H -1.1085111307915378 -0.5654467184002269 4.704974603989556
| 45> C -0.44659012930180986 2.7289721161028124 4.916996593972843
| 46> H 0.16557053207500658 3.9934351375760357 3.2917780500032916
| 47> H -1.0706439814542528 1.2961565272946909 6.42685714181762
| 48> H -0.41193579841752703 3.5675010123441893 5.608725821243298
| 49> *
| 50>
| 51> % eprnmr
| 52> gtensor true
| 53> Nuclei = all H {aiso,adip,aorb,fgrad,rho}
| 54> Nuclei = all Cu {aiso,adip,aorb,fgrad,rho}
| 55> end
| 56>
| 57>                          ****END OF INPUT****

CARTESIAN COORDINATES (ANGSTROEM)
---------------------------------
  Cu     0.000044    0.000219    0.000016
  S     -0.625770   -0.743655    2.222281
  C     -0.504555    0.693842    3.113570
  S     -0.265397   -2.041722   -0.821610
  C      0.121496   -1.955659   -2.577470
  S      0.265258    2.040164    0.820681
  C     -0.121412    1.955821    2.577236
  S      0.625316    0.742593   -2.221204
  C      0.504709   -0.693806   -3.114267
  C      0.835838   -0.459651   -4.453038
  C      0.111423   -2.969138   -3.565124
  C      0.446786   -2.727386   -4.916308
  H     -0.165429   -3.992955   -3.291962
  C      0.815235   -1.467981   -5.385247
  H      1.108797    0.566997   -4.704753
  H      0.412239   -3.565693   -5.608325
  H      1.070886   -1.295213   -6.427045
  C     -0.835446    0.460847    4.452390
  C     -0.111363    2.969886    3.565600
  C     -0.814851    1.469690    5.385162
  H     -1.108511   -0.565447    4.704974
  C     -0.446590    2.728972    4.916996
  H      0.165571    3.993435    3.291778
  H     -1.070644    1.296156    6.426857
  H     -0.411936    3.567501    5.608726

 Total Charge           Charge          ....   -2
 Multiplicity           Mult            ....    2
 Number of Electrons    NEL             ....  175
 Basis Dimension        Dim             ....  475

ORBITAL ENERGIES
----------------
                 SPIN UP ORBITALS
  NO   OCC          E(Eh)            E(eV)
   0   1.0000    -318.181001     -8658.1452
   1   1.0000     -88.020980     -2395.1726
   2   1.0000     -88.020916     -2395.1709
   3   1.0000     -88.008004     -2394.8195
   4   1.0000     -88.007982     -2394.8189
   5   1.0000     -38.026230     -1034.7463
   6   1.0000     -33.529595      -912.3867
   7   1.0000     -33.528196      -912.3486
   8   1.0000     -33.514890      -911.9865
   9   1.0000      -9.838887      -267.7297
  10   1.0000      -9.838761      -267.7263
  11   1.0000      -9.827680      -267.4248
  12   1.0000      -9.827678      -267.4247
  13   1.0000      -9.825406      -267.3629
  14   1.0000      -9.825307      -267.3602
  15   1.0000      -9.824128      -267.3281
  16   1.0000      -9.824072      -267.3266
  17   1.0000      -9.823429      -267.3091
  18   1.0000      -9.823407      -267.3085
  19   1.0000      -9.811771      -266.9919
  20   1.0000      -9.811762      -266.9916
  21   1.0000      -7.588277      -206.4875
  22   1.0000      -7.588221      -206.4860
  23   1.0000      -7.578221      -206.2139
  24   1.0000      -7.578217      -206.2138
  25   1.0000      -5.512142      -149.9930
  26   1.0000      -5.512083      -149.9914
  27   1.0000      -5.505817      -149.8209
  28   1.0000      -5.505765      -149.8195
  29   1.0000      -5.504173      -149.7762
  30   1.0000      -5.504119      -149.7747
  31   1.0000      -5.500973      -149.6891
  32   1.0000      -5.500968      -149.6890
  33   1.0000      -5.496461      -149.5663
  34   1.0000      -5.496458      -149.5662
  35   1.0000      -5.494324      -149.5081
  36   1.0000      -5.494323      -149.5081
  37   1.0000      -4.023548      -109.4863
  38   1.0000      -2.546252       -69.2870
  39   1.0000      -2.542028       -69.1721
  40   1.0000      -2.516194       -68.4691
  41   1.0000      -0.589891       -16.0518
  42   1.0000      -0.589747       -16.0478
  43   1.0000      -0.505258       -13.7488
  44   1.0000      -0.504267       -13.7218
  45   1.0000      -0.490088       -13.3360
  46   1.0000      -0.489822       -13.3287
  47   1.0000      -0.408848       -11.1253
  48   1.0000      -0.406955       -11.0738
  49   1.0000      -0.386063       -10.5053
  50   1.0000      -0.379424       -10.3247
  51   1.0000      -0.322531        -8.7765
  52   1.0000      -0.320360        -8.7174
  53   1.0000      -0.297696        -8.1007
  54   1.0000      -0.294648        -8.0178
  55   1.0000      -0.231567        -6.3013
  56   1.0000      -0.226334        -6.1589
  57   1.0000      -0.188817        -5.1380
  58   1.0000      -0.188118        -5.1189
  59   1.0000      -0.177295        -4.8245
  60   1.0000      -0.174475        -4.7477
  61   1.0000      -0.146709        -3.9922
  62   1.0000      -0.146510        -3.9867
  63   1.0000      -0.126932        -3.4540
  64   1.0000      -0.117054        -3.1852
  65   1.0000      -0.116926        -3.1817
  66   1.0000      -0.110945        -3.0190
  67   1.0000      -0.089050        -2.4232
  68   1.0000      -0.071980        -1.9587
  69   1.0000      -0.061520        -1.6740
  70   1.0000      -0.058877        -1.6021
  71   1.0000      -0.038954        -1.0600
  72   1.0000      -0.037096        -1.0094
  73   1.0000      -0.032150        -0.8748
  74   1.0000      -0.027147        -0.7387
  75   1.0000      -0.026602        -0.7239
  76   1.0000      -0.019106        -0.5199
  77   1.0000      -0.004383        -0.1193
  78   1.0000       0.000189         0.0051
  79   1.0000       0.003203         0.0871
  80   1.0000       0.019576         0.5327
  81   1.0000       0.019689         0.5358
  82   1.0000       0.037636         1.0241
  83   1.0000       0.047359         1.2887
  84   1.0000       0.053620         1.4591
  85   1.0000       0.065975         1.7953
  86   1.0000       0.088670         2.4128
  87   1.0000       0.105885         2.8813
  88   0.0000       0.181311         4.9337
  89   0.0000       0.181420         4.9367
  90   0.0000       0.196599         5.3497
  91   0.0000       0.196774         5.3545
  92   0.0000       0.199539         5.4297

                 SPIN DOWN ORBITALS
  NO   OCC          E(Eh)            E(eV)
   0   1.0000    -318.180823     -8658.1404
   1   1.0000     -88.020119     -2395.1492
   2   1.0000     -88.020055     -2395.1475
   3   1.0000     -88.006686     -2394.7837
   4   1.0000     -88.006665     -2394.7831
   5   1.0000     -38.010825     -1034.3271
   6   1.0000     -33.514842      -911.9852
   7   1.0000     -33.513544      -911.9499
   8   1.0000     -33.510680      -911.8720
   9   1.0000      -9.838991      -267.7326
  10   1.0000      -9.838865      -267.7291
  11   1.0000      -9.827813      -267.4284
  12   1.0000      -9.827811      -267.4283
  13   1.0000      -9.825365      -267.3618
  14   1.0000      -9.825267      -267.3591
  15   1.0000      -9.824128      -267.3281
  16   1.0000      -9.824072      -267.3266
  17   1.0000      -9.823368      -267.3074
  18   1.0000      -9.823346      -267.3068
  19   1.0000      -9.811651      -266.9886
  20   1.0000      -9.811641      -266.9883
  21   1.0000      -7.587689      -206.4715
  22   1.0000      -7.587633      -206.4700
  23   1.0000      -7.577315      -206.1892
  24   1.0000      -7.577310      -206.1891
  25   1.0000      -5.511405      -149.9730
  26   1.0000      -5.511345      -149.9713
  27   1.0000      -5.504025      -149.7721
  28   1.0000      -5.503971      -149.7707
  29   1.0000      -5.503512      -149.7582
  30   1.0000      -5.503457      -149.7567
  31   1.0000      -5.499814      -149.6576
  32   1.0000      -5.499809      -149.6574
  33   1.0000      -5.493669      -149.4903
  34   1.0000      -5.493668      -149.4903
  35   1.0000      -5.493325      -149.4810
  36   1.0000      -5.493325      -149.4810
  37   1.0000      -3.990962      -108.5996
  38   1.0000      -2.504800       -68.1591
  39   1.0000      -2.504646       -68.1549
  40   1.0000      -2.502288       -68.0907
  41   1.0000      -0.589440       -16.0395
  42   1.0000      -0.589304       -16.0358
  43   1.0000      -0.503805       -13.7092
  44   1.0000      -0.502863       -13.6836
  45   1.0000      -0.489019       -13.3069
  46   1.0000      -0.488760       -13.2998
  47   1.0000      -0.405063       -11.0223
  48   1.0000      -0.403091       -10.9687
  49   1.0000      -0.382776       -10.4159
  50   1.0000      -0.376233       -10.2378
  51   1.0000      -0.321340        -8.7441
  52   1.0000      -0.318923        -8.6783
  53   1.0000      -0.295767        -8.0482
  54   1.0000      -0.292357        -7.9554
  55   1.0000      -0.230797        -6.2803
  56   1.0000      -0.225445        -6.1347
  57   1.0000      -0.187810        -5.1106
  58   1.0000      -0.187195        -5.0938
  59   1.0000      -0.176643        -4.8067
  60   1.0000      -0.173457        -4.7200
  61   1.0000      -0.146031        -3.9737
  62   1.0000      -0.144919        -3.9435
  63   1.0000      -0.125667        -3.4196
  64   1.0000      -0.116857        -3.1798
  65   1.0000      -0.116711        -3.1759
  66   1.0000      -0.109963        -2.9922
  67   1.0000      -0.086118        -2.3434
  68   1.0000      -0.070542        -1.9196
  69   1.0000      -0.057055        -1.5525
  70   1.0000      -0.049588        -1.3494
  71   1.0000      -0.036871        -1.0033
  72   1.0000      -0.036201        -0.9851
  73   1.0000      -0.023305        -0.6342
  74   1.0000      -0.022040        -0.5997
  75   1.0000      -0.018282        -0.4975
  76   1.0000      -0.001160        -0.0316
  77   1.0000       0.004026         0.1096
  78   1.0000       0.010795         0.2937
  79   1.0000       0.015761         0.4289
  80   1.0000       0.025895         0.7046
  81   1.0000       0.034624         0.9422
  82   1.0000       0.046378         1.2620
  83   1.0000       0.049708         1.3526
  84   1.0000       0.059190         1.6106
  85   1.0000       0.068396         1.8611
  86   1.0000       0.092888         2.5276
  87   0.0000       0.137890         3.7522
  88   0.0000       0.182765         4.9733
  89   0.0000       0.182863         4.9760
  90   0.0000       0.198971         5.4143
  91   0.0000       0.199178         5.4199

MULLIKEN ATOMIC CHARGES AND SPIN POPULATIONS
--------------------------------------------
   0 Cu:    0.140085    0.364970
   1 S :   -0.393004    0.194136
   2 C :    0.076639   -0.009931
   3 S :   -0.433021    0.136214
   4 C :   -0.060627   -0.005901
   5 S :   -0.432358    0.136201
   6 C :   -0.061367   -0.005900
   7 S :   -0.392378    0.194087
   8 C :    0.076148   -0.009933
   9 C :   -0.058872   -0.000460
  10 C :   -0.104140   -0.000857
  11 C :   -0.139121   -0.002596
  12 H :    0.053471    0.000749
  13 C :   -0.135203    0.000878
  14 H :    0.062798    0.002975
  15 H :    0.038726    0.001284
  16 H :    0.022284    0.001051
  17 C :   -0.058845   -0.000461
  18 C :   -0.104822   -0.000855
  19 C :   -0.135307    0.000885
  20 H :    0.063121    0.002971
  21 C :   -0.138895   -0.002594
  22 H :    0.053762    0.000751
  23 H :    0.022356    0.001041
  24 H :    0.038572    0.001293
Sum of atomic charges         :   -2.0000000

LOEWDIN ATOMIC CHARGES AND SPIN POPULATIONS
-------------------------------------------
   0 Cu:   -0.899445    0.432158
   1 S :    0.012644    0.152138
   2 C :   -0.056530    0.004492
   3 S :    0.015487    0.098677
   4 C :   -0.009203    0.004337
   5 S :    0.015726    0.098547
   6 C :   -0.008506    0.004340
   7 S :    0.012717    0.151984
   8 C :   -0.056160    0.004523
   9 C :    0.295982    0.007609
  10 C :    0.308273    0.002116
  11 C :    0.309965   -0.001123
  12 H :   -0.428165    0.003070
  13 C :    0.311409    0.001128
  14 H :   -0.472883    0.011164
  15 H :   -0.431657    0.000125
  16 H :   -0.406178    0.000304
  17 C :    0.296188    0.007610
  18 C :    0.308534    0.002117
  19 C :    0.311465    0.001126
  20 H :   -0.473321    0.011187
  21 C :    0.309759   -0.001116
  22 H :   -0.428423    0.003055
  23 H :   -0.406237    0.000301
  24 H :   -0.431441    0.000131

  Mayer bond orders larger than 0.100000
B(  0-Cu,  1-S ) :   0.6222 B(  0-Cu,  3-S ) :   0.7864 B(  0-Cu,  5-S ) :   0.7887
B(  0-Cu,  7-S ) :   0.6234 B(  1-S ,  2-C ) :   1.2101 B(  2-C ,  6-C ) :   1.2491
B(  2-C , 17-C ) :   1.2941 B(  3-S ,  4-C ) :   1.1539 B(  4-C ,  8-C ) :   1.2491
B(  4-C , 10-C ) :   1.3313 B(  5-S ,  6-C ) :   1.1534 B(  6-C , 18-C ) :   1.3314
B(  7-S ,  8-C ) :   1.2100 B(  8-C ,  9-C ) :   1.2939 B(  9-C , 13-C ) :   1.3693
B(  9-C , 14-H ) :   0.9637 B( 10-C , 11-C ) :   1.3597 B( 10-C , 12-H ) :   0.9792
B( 11-C , 13-C ) :   1.3349 B( 11-C , 15-H ) :   0.9853 B( 13-C , 16-H ) :   0.9926
B( 17-C , 19-C ) :   1.3690 B( 17-C , 20-H ) :   0.9636 B( 18-C , 21-C ) :   1.3597
B( 18-C , 22-H ) :   0.9790 B( 19-C , 21-C ) :   1.3351 B( 19-C , 23-H ) :   0.9925
B( 21-C , 24-H ) :   0.9853

FINAL SINGLE POINT ENERGY     -3686.895671208251

DIPOLE MOMENT
-------------
                                X             Y             Z
Electronic contribution:     -0.00027      -0.00207      -0.00086
Nuclear contribution   :      0.00070       0.00343       0.00015
                        -----------------------------------------
Total Dipole Moment    :      0.00044       0.00136      -0.00071
                        -----------------------------------------
Magnitude (a.u.)       :      0.00159
Magnitude (Debye)      :      0.00405

Rotational constants in cm-1:     0.033421     0.004797     0.004195
Rotational constants in MHz :  1001.935458   143.803828   125.754747

                             ****ORCA TERMINATED NORMALLY****
TOTAL RUN TIME: 0 days 6 hours 28 minutes 14 seconds 195 msec
