                         Program Version 5.0.4 -  RELEASE  -
|  1> ! RIJCOSX nofrozencore ReducedPop printbasis
|  2> ! M06L ano-rcc-dzp autoaux
|  3>
|  4> %maxcore 5000
|  5> %basis
|  6> PCDTrimBas overlap
|  7> PCDTrimAuxJ Coulomb
|  8> PCDTrimAuxJK Coulomb
|  9> PCDTrimAuxC Coulomb
| 10> PCDThresh -1
| 11> end
| 12>
| 13> %basis
| 14> newgto Cu "ano-rcc-tzp" end
| 15> newgto S "ano-rcc-tzp" end
| 16> end
| 17>
| 18> %pal
| 19> nprocs 12
| 20> end
| 21>
| 22> % sym SymThresh 1e-2 end
| 23> * xyz -2 2
| 24> Cu -0.000202075650169396 0.0005143302155776428 0.00012122648618380137
| 25> S 1.9656306052682249 -0.9484562545339326 -0.7681382634977482
| 26> C 1.590285973362485 -2.777705164760413 -0.8252732379247859
| 27> S 0.9115667739024111 2.1343907526456056 -0.09524527015067376
| 28> C -0.24511179948637601 3.110648463794837 0.39915843730199446
| 29> S -0.9379834014318165 -2.1125858818395056 0.10648683094541904
| 30> C 0.4300653222639912 -3.2405926304060513 -0.4755617110333427
| 31> S -1.9584052659896414 0.9844860918316316 0.7693209353079649
| 32> C -1.6526777203923484 2.5403476464691193 0.822539121767808
| 33> C -2.6335098840208087 3.576997415306294 1.2629495916566902
| 34> C -0.10307319751473037 4.587776338755584 0.5003541319430667
| 35> C -1.1372088066211583 5.4652165549595075 0.9428462849244382
| 36> H 0.7835962462024398 5.25194644841097 0.26456682790903535
| 37> C -2.370831586003993 4.973554252940524 1.3147342526488102
| 38> H -3.7054170577457186 3.4645019348349746 1.617993114120633
| 39> H -0.9232249142263029 6.532940658606545 0.9779402557980279
| 40> H -3.1690608853026005 5.632851928094776 1.6544624033567719
| 41> C 2.569659819083309 -3.584271426605069 -1.2418588837239921
| 42> C 0.15839558039489596 -4.548586481549174 -0.5152938309561521
| 43> C 2.3661954465254382 -4.925807665530364 -1.3083086807350135
| 44> H 3.4528466724783784 -2.9589447390373205 -1.4803936240484665
| 45> C 1.1116934259187194 -5.4305012026158215 -0.9306039421231854
| 46> H -0.8881793597088339 -4.6877774589699435 -0.1716169723556272
| 47> H 3.1478109431992474 -5.596715626710773 -1.6435342102358277
| 48> H 0.9252690180778237 -6.496914967569053 -0.9749867166133662
| 49> *
| 50>
| 51> % eprnmr
| 52> gtensor true
| 53> Nuclei = all H {aiso,adip,aorb,fgrad,rho}
| 54> Nuclei = all Cu {aiso,adip,aorb,fgrad,rho}
| 55> end
| 56>
| 57>                          ****END OF INPUT****

CARTESIAN COORDINATES (ANGSTROEM)
---------------------------------
  Cu    -0.000222    0.000520    0.000000
  S      2.092599   -0.987085    0.000000
  C      1.725979   -2.818994    0.000000
  S      0.928231    2.129327    0.000000
  C     -0.310019    3.130404    0.000000
  S     -0.956503   -2.106958    0.000000
  C      0.507587   -3.264186    0.000000
  S     -2.085555    1.023170    0.000000
  C     -1.788015    2.581527    0.000000
  C     -2.841443    3.640265    0.000000
  C     -0.184155    4.612457    0.000000
  C     -1.291296    5.512109    0.000000
  H      0.741880    5.264653    0.000000
  C     -2.586779    5.039264    0.000000
  H     -3.972262    3.545691    0.000000
  H     -1.082694    6.581474    0.000000
  H     -3.441065    5.715618    0.000000
  C      2.774093   -3.646475    0.000000
  C      0.241970   -4.574025    0.000000
  C      2.581097   -4.991200    0.000000
  H      3.697084   -3.033255    0.000000
  C      1.263765   -5.476781    0.000000
  H     -0.861643   -4.695865    0.000000
  H      3.418018   -5.678935    0.000000
  H      1.084263   -6.545304    0.000000

 Total Charge           Charge          ....   -2
 Multiplicity           Mult            ....    2
 Number of Electrons    NEL             ....  175
 Basis Dimension        Dim             ....  475

ORBITAL ENERGIES
----------------
                 SPIN UP ORBITALS
  NO   OCC          E(Eh)            E(eV)    Irrep
   0   1.0000    -318.185717     -8658.2735    1-A'
   1   1.0000     -88.019429     -2395.1304    2-A'
   2   1.0000     -88.019355     -2395.1284    3-A'
   3   1.0000     -88.013106     -2394.9584    4-A'
   4   1.0000     -88.012540     -2394.9430    5-A'
   5   1.0000     -38.031038     -1034.8771    6-A'
   6   1.0000     -33.534214      -912.5123    7-A'
   7   1.0000     -33.533377      -912.4896    8-A'
   8   1.0000     -33.519456      -912.1108    1-A"
   9   1.0000      -9.838699      -267.7246    9-A'
  10   1.0000      -9.838236      -267.7120   10-A'
  11   1.0000      -9.837908      -267.7031   11-A'
  12   1.0000      -9.837710      -267.6977   12-A'
  13   1.0000      -9.825661      -267.3698   13-A'
  14   1.0000      -9.824667      -267.3428   14-A'
  15   1.0000      -9.823327      -267.3063   15-A'
  16   1.0000      -9.822354      -267.2798   16-A'
  17   1.0000      -9.816051      -267.1083   17-A'
  18   1.0000      -9.815818      -267.1020   18-A'
  19   1.0000      -9.807377      -266.8723   19-A'
  20   1.0000      -9.806888      -266.8590   20-A'
  21   1.0000      -7.586246      -206.4323   21-A'
  22   1.0000      -7.586182      -206.4305   22-A'
  23   1.0000      -7.586144      -206.4295   23-A'
  24   1.0000      -7.585431      -206.4101   24-A'
  25   1.0000      -5.510154      -149.9389   25-A'
  26   1.0000      -5.510049      -149.9361   26-A'
  27   1.0000      -5.508242      -149.8869   27-A'
  28   1.0000      -5.507525      -149.8674   28-A'
  29   1.0000      -5.504495      -149.7849   29-A'
  30   1.0000      -5.504403      -149.7824   30-A'
  31   1.0000      -5.503595      -149.7604   31-A'
  32   1.0000      -5.502879      -149.7410   32-A'
  33   1.0000      -5.502773      -149.7381    2-A"
  34   1.0000      -5.502003      -149.7171    3-A"
  35   1.0000      -5.501839      -149.7126    4-A"
  36   1.0000      -5.501740      -149.7100    5-A"
  37   1.0000      -4.028491      -109.6208   33-A'
  38   1.0000      -2.549979       -69.3885   34-A'
  39   1.0000      -2.548466       -69.3473   35-A'
  40   1.0000      -2.520791       -68.5942    6-A"
  41   1.0000      -0.625672       -17.0254   36-A'
  42   1.0000      -0.560634       -15.2556   37-A'
  43   1.0000      -0.513609       -13.9760   38-A'
  44   1.0000      -0.509652       -13.8683   39-A'
  45   1.0000      -0.507931       -13.8215   40-A'
  46   1.0000      -0.485437       -13.2094   41-A'
  47   1.0000      -0.421862       -11.4795   42-A'
  48   1.0000      -0.398633       -10.8474   43-A'
  49   1.0000      -0.389834       -10.6079   44-A'
  50   1.0000      -0.369811       -10.0631   45-A'
  51   1.0000      -0.346264        -9.4223   46-A'
  52   1.0000      -0.317846        -8.6490   47-A'
  53   1.0000      -0.290118        -7.8945   48-A'
  54   1.0000      -0.274457        -7.4684   49-A'
  55   1.0000      -0.250057        -6.8044   50-A'
  56   1.0000      -0.210306        -5.7227   51-A'
  57   1.0000      -0.208884        -5.6840   52-A'
  58   1.0000      -0.172588        -4.6963   53-A'
  59   1.0000      -0.172168        -4.6849   54-A'
  60   1.0000      -0.169766        -4.6196   55-A'
  61   1.0000      -0.164406        -4.4737   56-A'
  62   1.0000      -0.143436        -3.9031    7-A"
  63   1.0000      -0.135876        -3.6974   57-A'
  64   1.0000      -0.118669        -3.2291   58-A'
  65   1.0000      -0.112882        -3.0717   59-A'
  66   1.0000      -0.097585        -2.6554    8-A"
  67   1.0000      -0.076299        -2.0762   60-A'
  68   1.0000      -0.073863        -2.0099   61-A'
  69   1.0000      -0.063224        -1.7204   62-A'
  70   1.0000      -0.061235        -1.6663   63-A'
  71   1.0000      -0.043546        -1.1850    9-A"
  72   1.0000      -0.038896        -1.0584   10-A"
  73   1.0000      -0.033873        -0.9217   11-A"
  74   1.0000      -0.031280        -0.8512   64-A'
  75   1.0000      -0.029973        -0.8156   65-A'
  76   1.0000      -0.027442        -0.7467   12-A"
  77   1.0000      -0.005793        -0.1576   66-A'
  78   1.0000      -0.004209        -0.1145   13-A"
  79   1.0000      -0.003166        -0.0861   14-A"
  80   1.0000       0.011861         0.3228   67-A'
  81   1.0000       0.027300         0.7429   68-A'
  82   1.0000       0.030376         0.8266   69-A'
  83   1.0000       0.051075         1.3898   15-A"
  84   1.0000       0.052816         1.4372   16-A"
  85   1.0000       0.056547         1.5387   17-A"
  86   1.0000       0.097528         2.6539   18-A"
  87   1.0000       0.099893         2.7182   70-A'
  88   0.0000       0.174207         4.7404   71-A'
  89   0.0000       0.189348         5.1524   72-A'
  90   0.0000       0.191658         5.2153   73-A'
  91   0.0000       0.196778         5.3546   19-A"
  92   0.0000       0.202356         5.5064   20-A"

                 SPIN DOWN ORBITALS
  NO   OCC          E(Eh)            E(eV)    Irrep
   0   1.0000    -318.185541     -8658.2687    1-A'
   1   1.0000     -88.018276     -2395.0990    2-A'
   2   1.0000     -88.018195     -2395.0969    3-A'
   3   1.0000     -88.012158     -2394.9326    4-A'
   4   1.0000     -88.011586     -2394.9170    5-A'
   5   1.0000     -38.015183     -1034.4457    6-A'
   6   1.0000     -33.519065      -912.1001    7-A'
   7   1.0000     -33.518261      -912.0782    8-A'
   8   1.0000     -33.515138      -911.9933    1-A"
   9   1.0000      -9.838679      -267.7241    9-A'
  10   1.0000      -9.838237      -267.7120   10-A'
  11   1.0000      -9.837889      -267.7026   11-A'
  12   1.0000      -9.837707      -267.6976   12-A'
  13   1.0000      -9.825821      -267.3742   13-A'
  14   1.0000      -9.824822      -267.3470   14-A'
  15   1.0000      -9.823256      -267.3044   15-A'
  16   1.0000      -9.822280      -267.2778   16-A'
  17   1.0000      -9.815982      -267.1064   17-A'
  18   1.0000      -9.815744      -267.1000   18-A'
  19   1.0000      -9.807339      -266.8713   19-A'
  20   1.0000      -9.806850      -266.8580   20-A'
  21   1.0000      -7.585543      -206.4131   21-A'
  22   1.0000      -7.585446      -206.4105   22-A'
  23   1.0000      -7.585339      -206.4076   23-A'
  24   1.0000      -7.584787      -206.3926   24-A'
  25   1.0000      -5.509187      -149.9126   25-A'
  26   1.0000      -5.509077      -149.9096   26-A'
  27   1.0000      -5.507351      -149.8626   27-A'
  28   1.0000      -5.506626      -149.8429   28-A'
  29   1.0000      -5.502049      -149.7184    2-A"
  30   1.0000      -5.501993      -149.7168   29-A'
  31   1.0000      -5.501888      -149.7140   30-A'
  32   1.0000      -5.501710      -149.7092   31-A'
  33   1.0000      -5.501275      -149.6973    3-A"
  34   1.0000      -5.500982      -149.6893   32-A'
  35   1.0000      -5.500968      -149.6890    4-A"
  36   1.0000      -5.500865      -149.6861    5-A"
  37   1.0000      -3.994760      -108.7030   33-A'
  38   1.0000      -2.509087       -68.2757    6-A"
  39   1.0000      -2.507922       -68.2440   34-A'
  40   1.0000      -2.506389       -68.2023   35-A'
  41   1.0000      -0.625601       -17.0235   36-A'
  42   1.0000      -0.559376       -15.2214   37-A'
  43   1.0000      -0.513029       -13.9602   38-A'
  44   1.0000      -0.509106       -13.8535   39-A'
  45   1.0000      -0.506238       -13.7754   40-A'
  46   1.0000      -0.482474       -13.1288   41-A'
  47   1.0000      -0.420017       -11.4292   42-A'
  48   1.0000      -0.394525       -10.7356   43-A'
  49   1.0000      -0.385739       -10.4965   44-A'
  50   1.0000      -0.367903       -10.0111   45-A'
  51   1.0000      -0.344669        -9.3789   46-A'
  52   1.0000      -0.314764        -8.5652   47-A'
  53   1.0000      -0.288853        -7.8601   48-A'
  54   1.0000      -0.272723        -7.4212   49-A'
  55   1.0000      -0.249250        -6.7824   50-A'
  56   1.0000      -0.209952        -5.7131   51-A'
  57   1.0000      -0.208274        -5.6674   52-A'
  58   1.0000      -0.172211        -4.6861   53-A'
  59   1.0000      -0.169872        -4.6224   54-A'
  60   1.0000      -0.168833        -4.5942   55-A'
  61   1.0000      -0.163002        -4.4355   56-A'
  62   1.0000      -0.143458        -3.9037    7-A"
  63   1.0000      -0.134813        -3.6685   57-A'
  64   1.0000      -0.117074        -3.1858   58-A'
  65   1.0000      -0.111525        -3.0347   59-A'
  66   1.0000      -0.096732        -2.6322    8-A"
  67   1.0000      -0.075061        -2.0425   60-A'
  68   1.0000      -0.072388        -1.9698   61-A'
  69   1.0000      -0.059556        -1.6206   62-A'
  70   1.0000      -0.045170        -1.2291   63-A'
  71   1.0000      -0.042571        -1.1584    9-A"
  72   1.0000      -0.037460        -1.0193   10-A"
  73   1.0000      -0.032338        -0.8800   11-A"
  74   1.0000      -0.024421        -0.6645   12-A"
  75   1.0000      -0.022838        -0.6214   64-A'
  76   1.0000      -0.006421        -0.1747   65-A'
  77   1.0000       0.004809         0.1309   66-A'
  78   1.0000       0.005991         0.1630   13-A"
  79   1.0000       0.009119         0.2482   14-A"
  80   1.0000       0.026452         0.7198   67-A'
  81   1.0000       0.034494         0.9386   68-A'
  82   1.0000       0.038635         1.0513   69-A'
  83   1.0000       0.053735         1.4622   15-A"
  84   1.0000       0.057421         1.5625   16-A"
  85   1.0000       0.059900         1.6300   17-A"
  86   1.0000       0.100307         2.7295   18-A"
  87   0.0000       0.132749         3.6123   70-A'
  88   0.0000       0.175230         4.7683   71-A'
  89   0.0000       0.190523         5.1844   72-A'
  90   0.0000       0.193449         5.2640   73-A'
  91   0.0000       0.196833         5.3561   19-A"

MULLIKEN ATOMIC CHARGES AND SPIN POPULATIONS
--------------------------------------------
   0 Cu:    0.128736    0.376809
   1 S :   -0.475326    0.180278
   2 C :    0.096866   -0.012259
   3 S :   -0.300448    0.140366
   4 C :   -0.049075    0.000218
   5 S :   -0.474895    0.179340
   6 C :    0.099359   -0.012141
   7 S :   -0.295309    0.139083
   8 C :   -0.052055    0.000044
   9 C :   -0.149496   -0.000029
  10 C :   -0.150621   -0.000276
  11 C :   -0.096890   -0.000209
  12 H :    0.022109    0.000316
  13 C :   -0.093987   -0.000213
  14 H :    0.021134    0.000285
  15 H :    0.027138    0.001634
  16 H :    0.025589    0.001668
  17 C :   -0.068831    0.000618
  18 C :   -0.075213    0.000894
  19 C :   -0.166436   -0.001112
  20 H :    0.063563    0.002322
  21 C :   -0.170390   -0.001106
  22 H :    0.064037    0.002069
  23 H :    0.035022    0.000709
  24 H :    0.035420    0.000691
Sum of atomic charges         :   -2.0000000

LOEWDIN ATOMIC CHARGES AND SPIN POPULATIONS
-------------------------------------------
   0 Cu:   -0.878435    0.442736
   1 S :    0.030239    0.136311
   2 C :   -0.027301   -0.000935
   3 S :    0.014518    0.106926
   4 C :   -0.075669    0.014503
   5 S :    0.031297    0.135370
   6 C :   -0.028677   -0.000930
   7 S :    0.017572    0.106135
   8 C :   -0.077740    0.014535
   9 C :    0.308153    0.004247
  10 C :    0.308106    0.004179
  11 C :    0.289958    0.000393
  12 H :   -0.422019    0.002057
  13 C :    0.288360    0.000404
  14 H :   -0.422486    0.001949
  15 H :   -0.429948    0.000523
  16 H :   -0.427403    0.000540
  17 C :    0.290442    0.004282
  18 C :    0.292079    0.004353
  19 C :    0.323955   -0.000179
  20 H :   -0.452390    0.011373
  21 C :    0.325306   -0.000177
  22 H :   -0.453592    0.011467
  23 H :   -0.411583   -0.000026
  24 H :   -0.412741   -0.000035

  Mayer bond orders larger than 0.100000
B(  0-Cu,  1-S ) :   0.7186 B(  0-Cu,  3-S ) :   0.6856 B(  0-Cu,  5-S ) :   0.7182
B(  0-Cu,  7-S ) :   0.6818 B(  1-S ,  2-C ) :   1.0880 B(  2-C ,  6-C ) :   1.3058
B(  2-C , 17-C ) :   1.3059 B(  3-S ,  4-C ) :   1.3342 B(  4-C ,  8-C ) :   1.1493
B(  4-C , 10-C ) :   1.3093 B(  5-S ,  6-C ) :   1.0891 B(  6-C , 18-C ) :   1.3070
B(  7-S ,  8-C ) :   1.3440 B(  8-C ,  9-C ) :   1.3042 B(  9-C , 13-C ) :   1.3315
B(  9-C , 14-H ) :   0.9944 B( 10-C , 11-C ) :   1.3303 B( 10-C , 12-H ) :   0.9939
B( 11-C , 13-C ) :   1.3459 B( 11-C , 15-H ) :   0.9888 B( 13-C , 16-H ) :   0.9896
B( 17-C , 19-C ) :   1.3864 B( 17-C , 20-H ) :   0.9574 B( 18-C , 21-C ) :   1.3872
B( 18-C , 22-H ) :   0.9574 B( 19-C , 21-C ) :   1.3378 B( 19-C , 23-H ) :   0.9898
B( 21-C , 24-H ) :   0.9894

FINAL SINGLE POINT ENERGY     -3686.825104081692

DIPOLE MOMENT
-------------
                                X             Y             Z
Electronic contribution:      0.87252      -2.40528      -0.00000
Nuclear contribution   :     -0.38891       1.07834       0.00000
                        -----------------------------------------
Total Dipole Moment    :      0.48361      -1.32694      -0.00000
                        -----------------------------------------
Magnitude (a.u.)       :      1.41232
Magnitude (Debye)      :      3.58983

Rotational constants in cm-1:     0.033365     0.004802     0.004198
Rotational constants in MHz :  1000.244712   143.969491   125.854688

                             ****ORCA TERMINATED NORMALLY****
TOTAL RUN TIME: 0 days 3 hours 14 minutes 28 seconds 752 msec
