                         Program Version 5.0.4 -  RELEASE  -
|  1> ! RIJCOSX nofrozencore ReducedPop printbasis
|  2> ! M06L ano-rcc-dzp autoaux
|  3>
|  4> %maxcore 5000
|  5> %basis
|  6> PCDTrimBas overlap
|  7> PCDTrimAuxJ Coulomb
|  8> PCDTrimAuxJK Coulomb
|  9> PCDTrimAuxC Coulomb
| 10> PCDThresh -1
| 11> end
| 12>
| 13> %basis
| 14> newgto Cu "ano-rcc-tzp" end
| 15> newgto S "ano-rcc-tzp" end
| 16> end
| 17>
| 18> %pal
| 19> nprocs 12
| 20> end
| 21>
| 22> % sym SymThresh 1e-2 end
| 23> * xyz -2 2
| 24> Cu 2.1580477236080775e-07 -7.66787029773652e-07 -6.045377996430002e-07
| 25> S 2.159574237423572 0.035031133972725115 0.8439323526770267
| 26> C 2.135361434374973 -1.1225098239105331 2.149447334457488
| 27> S 0.548950344245391 1.5418373158149663 -1.642728961360445
| 28> C -0.91912724127086 1.7354696399338694 -2.56578770832246
| 29> S -0.5488836605707316 -1.5420742530071663 1.6425421591803553
| 30> C 0.9191060924031687 -1.7353944948049516 2.565846953026825
| 31> S -2.159640057879142 -0.03479726392864415 -0.8437479686481356
| 32> C -2.1353420119454607 1.1224408130778536 -2.1495017428594556
| 33> C -3.3199864573982825 1.4569921222806999 -2.828682647366082
| 34> C -0.930260390255587 2.5197480282557847 -3.732566829488872
| 35> C -2.1041180710245455 2.7921311625284315 -4.4255473913645496
| 36> H 0.016619951301889903 2.93029504771089 -4.083179865088697
| 37> C -3.319520859379468 2.2824767915500632 -3.947132907709712
| 38> H -4.256767642238258 1.0369896385942328 -2.4624894883147292
| 39> H -2.070435549456002 3.4092861563423793 -5.321877771428335
| 40> H -4.258414831503317 2.5122756559684962 -4.448222481921249
| 41> C 3.3200902065197817 -1.457362027016696 2.828389907539486
| 42> C 0.93015318825773 -2.5193658549273117 3.7328692419202625
| 43> C 3.3195948804163873 -2.2827397995012757 3.946925551244435
| 44> H 4.256964887800196 -1.037690481939446 2.4619369407658556
| 45> C 2.10404534481626 -2.791872755299398 4.425751120603029
| 46> H -0.016818222913683317 -2.929589290255853 4.083737392471537
| 47> H 4.258553794264583 -2.5127659452815383 4.447835304002847
| 48> H 2.070301087570687 -3.4088049264886977 5.322256542902081
| 49> *
| 50>
| 51> % eprnmr
| 52> gtensor true
| 53> Nuclei = all H {aiso,adip,aorb,fgrad,rho}
| 54> Nuclei = all Cu {aiso,adip,aorb,fgrad,rho}
| 55> end
| 56>
| 57>                          ****END OF INPUT****

CARTESIAN COORDINATES (ANGSTROEM)
---------------------------------
  Cu     0.000000    0.000000    0.000000
  S      1.465902    0.682866    1.661931
  C      0.666165    0.251587    3.151642
  S      1.465902    0.682866   -1.661931
  C      0.666165    0.251587   -3.151642
  S     -1.465902   -0.682866    1.661931
  C     -0.666165   -0.251587    3.151642
  S     -1.465902   -0.682866   -1.661931
  C     -0.666165   -0.251587   -3.151642
  C     -1.320797   -0.412150   -4.385460
  C      1.320797    0.412150   -4.385460
  C      0.674337    0.191717   -5.596188
  H      2.362496    0.732863   -4.375043
  C     -0.674337   -0.191717   -5.596188
  H     -2.362496   -0.732863   -4.375043
  H      1.215655    0.333273   -6.530201
  H     -1.215655   -0.333273   -6.530201
  C      1.320797    0.412150    4.385460
  C     -1.320797   -0.412150    4.385460
  C      0.674337    0.191717    5.596188
  H      2.362496    0.732863    4.375043
  C     -0.674337   -0.191717    5.596188
  H     -2.362496   -0.732863    4.375043
  H      1.215655    0.333273    6.530201
  H     -1.215655   -0.333273    6.530201

 Total Charge           Charge          ....   -2
 Multiplicity           Mult            ....    2
 Number of Electrons    NEL             ....  175
 Basis Dimension        Dim             ....  475

ORBITAL ENERGIES
----------------
                 SPIN UP ORBITALS
  NO   OCC          E(Eh)            E(eV)    Irrep
   0   1.0000    -318.181097     -8658.1478    1-Ag
   1   1.0000     -88.014794     -2395.0043    1-Au
   2   1.0000     -88.014781     -2395.0040    1-Bg
   3   1.0000     -88.014778     -2395.0039    1-Bu
   4   1.0000     -88.014744     -2395.0030    2-Ag
   5   1.0000     -38.026245     -1034.7467    3-Ag
   6   1.0000     -33.529363      -912.3803    2-Bu
   7   1.0000     -33.528533      -912.3578    2-Au
   8   1.0000     -33.514834      -911.9850    3-Bu
   9   1.0000      -9.833427      -267.5812    3-Au
  10   1.0000      -9.833421      -267.5810    4-Ag
  11   1.0000      -9.833097      -267.5722    2-Bg
  12   1.0000      -9.833095      -267.5721    4-Bu
  13   1.0000      -9.825212      -267.3576    4-Au
  14   1.0000      -9.825212      -267.3576    5-Ag
  15   1.0000      -9.824816      -267.3468    3-Bg
  16   1.0000      -9.824816      -267.3468    5-Bu
  17   1.0000      -9.817873      -267.1579    4-Bg
  18   1.0000      -9.817872      -267.1579    6-Bu
  19   1.0000      -9.817869      -267.1578    5-Au
  20   1.0000      -9.817868      -267.1578    6-Ag
  21   1.0000      -7.583402      -206.3549    5-Bg
  22   1.0000      -7.583402      -206.3549    7-Bu
  23   1.0000      -7.583398      -206.3548    6-Au
  24   1.0000      -7.583387      -206.3545    7-Ag
  25   1.0000      -5.506636      -149.8432    6-Bg
  26   1.0000      -5.506636      -149.8432    8-Bu
  27   1.0000      -5.506635      -149.8432    7-Au
  28   1.0000      -5.506635      -149.8432    8-Ag
  29   1.0000      -5.501332      -149.6989    7-Bg
  30   1.0000      -5.501332      -149.6989    9-Bu
  31   1.0000      -5.501332      -149.6989    8-Au
  32   1.0000      -5.501332      -149.6989    9-Ag
  33   1.0000      -5.499430      -149.6471    9-Au
  34   1.0000      -5.499430      -149.6471   10-Ag
  35   1.0000      -5.499430      -149.6471    8-Bg
  36   1.0000      -5.499429      -149.6471   10-Bu
  37   1.0000      -4.023905      -109.4960   11-Ag
  38   1.0000      -2.545294       -69.2610   11-Bu
  39   1.0000      -2.543781       -69.2198   10-Au
  40   1.0000      -2.516491       -68.4772   12-Bu
  41   1.0000      -0.588333       -16.0094   12-Ag
  42   1.0000      -0.588213       -16.0061   11-Au
  43   1.0000      -0.503417       -13.6987   13-Ag
  44   1.0000      -0.502305       -13.6684   12-Au
  45   1.0000      -0.489567       -13.3218   13-Bu
  46   1.0000      -0.489322       -13.3151    9-Bg
  47   1.0000      -0.409775       -11.1505   14-Bu
  48   1.0000      -0.407160       -11.0794   10-Bg
  49   1.0000      -0.386985       -10.5304   14-Ag
  50   1.0000      -0.380329       -10.3493   13-Au
  51   1.0000      -0.321444        -8.7469   15-Ag
  52   1.0000      -0.318792        -8.6748   14-Au
  53   1.0000      -0.300165        -8.1679   15-Bu
  54   1.0000      -0.296699        -8.0736   11-Bg
  55   1.0000      -0.231924        -6.3110   16-Ag
  56   1.0000      -0.226706        -6.1690   15-Au
  57   1.0000      -0.189306        -5.1513   17-Ag
  58   1.0000      -0.188398        -5.1266   16-Au
  59   1.0000      -0.177788        -4.8379   16-Bu
  60   1.0000      -0.174840        -4.7576   12-Bg
  61   1.0000      -0.147098        -4.0027   17-Bu
  62   1.0000      -0.144110        -3.9214   13-Bg
  63   1.0000      -0.130429        -3.5491   18-Ag
  64   1.0000      -0.116661        -3.1745   18-Bu
  65   1.0000      -0.116379        -3.1668   14-Bg
  66   1.0000      -0.113305        -3.0832   17-Au
  67   1.0000      -0.087307        -2.3757   19-Ag
  68   1.0000      -0.069470        -1.8904   19-Bu
  69   1.0000      -0.065103        -1.7715   15-Bg
  70   1.0000      -0.062699        -1.7061   18-Au
  71   1.0000      -0.037773        -1.0278   16-Bg
  72   1.0000      -0.036178        -0.9845   20-Bu
  73   1.0000      -0.031505        -0.8573   17-Bg
  74   1.0000      -0.030325        -0.8252   20-Ag
  75   1.0000      -0.024816        -0.6753   21-Ag
  76   1.0000      -0.019136        -0.5207   19-Au
  77   1.0000      -0.002738        -0.0745   22-Ag
  78   1.0000      -0.000448        -0.0122   23-Ag
  79   1.0000       0.001898         0.0516   18-Bg
  80   1.0000       0.018429         0.5015   24-Ag
  81   1.0000       0.019033         0.5179   20-Au
  82   1.0000       0.034468         0.9379   21-Bu
  83   1.0000       0.049855         1.3566   21-Au
  84   1.0000       0.052027         1.4157   25-Ag
  85   1.0000       0.062831         1.7097   22-Bu
  86   1.0000       0.087109         2.3704   19-Bg
  87   1.0000       0.105525         2.8715   20-Bg
  88   0.0000       0.181511         4.9392   26-Ag
  89   0.0000       0.181627         4.9423   22-Au
  90   0.0000       0.196692         5.3523   21-Bg
  91   0.0000       0.196767         5.3543   23-Bu
  92   0.0000       0.200663         5.4603   24-Bu

                 SPIN DOWN ORBITALS
  NO   OCC          E(Eh)            E(eV)    Irrep
   0   1.0000    -318.180923     -8658.1431    1-Ag
   1   1.0000     -88.013725     -2394.9752    1-Au
   2   1.0000     -88.013713     -2394.9749    1-Bg
   3   1.0000     -88.013709     -2394.9748    1-Bu
   4   1.0000     -88.013676     -2394.9739    2-Ag
   5   1.0000     -38.010423     -1034.3162    3-Ag
   6   1.0000     -33.514249      -911.9691    2-Bu
   7   1.0000     -33.513451      -911.9474    2-Au
   8   1.0000     -33.510519      -911.8676    3-Bu
   9   1.0000      -9.833535      -267.5841    3-Au
  10   1.0000      -9.833529      -267.5839    4-Ag
  11   1.0000      -9.833205      -267.5751    2-Bg
  12   1.0000      -9.833202      -267.5750    4-Bu
  13   1.0000      -9.825191      -267.3570    4-Au
  14   1.0000      -9.825191      -267.3570    5-Ag
  15   1.0000      -9.824795      -267.3463    3-Bg
  16   1.0000      -9.824795      -267.3463    5-Bu
  17   1.0000      -9.817814      -267.1563    4-Bg
  18   1.0000      -9.817813      -267.1563    6-Bu
  19   1.0000      -9.817810      -267.1562    5-Au
  20   1.0000      -9.817809      -267.1562    6-Ag
  21   1.0000      -7.582670      -206.3349    5-Bg
  22   1.0000      -7.582670      -206.3349    7-Bu
  23   1.0000      -7.582667      -206.3349    6-Au
  24   1.0000      -7.582654      -206.3345    7-Ag
  25   1.0000      -5.505708      -149.8179    6-Bg
  26   1.0000      -5.505708      -149.8179    8-Bu
  27   1.0000      -5.505707      -149.8179    7-Au
  28   1.0000      -5.505707      -149.8179    8-Ag
  29   1.0000      -5.499107      -149.6383    7-Bg
  30   1.0000      -5.499107      -149.6383    8-Au
  31   1.0000      -5.499107      -149.6383    9-Bu
  32   1.0000      -5.499106      -149.6383    9-Ag
  33   1.0000      -5.498597      -149.6244    9-Au
  34   1.0000      -5.498597      -149.6244    8-Bg
  35   1.0000      -5.498597      -149.6244   10-Ag
  36   1.0000      -5.498596      -149.6244   10-Bu
  37   1.0000      -3.990297      -108.5815   11-Ag
  38   1.0000      -2.504799       -68.1591   11-Bu
  39   1.0000      -2.503409       -68.1212   12-Bu
  40   1.0000      -2.501843       -68.0786   10-Au
  41   1.0000      -0.587951       -15.9990   12-Ag
  42   1.0000      -0.587842       -15.9960   11-Au
  43   1.0000      -0.502088       -13.6625   13-Ag
  44   1.0000      -0.501048       -13.6342   12-Au
  45   1.0000      -0.488549       -13.2941   13-Bu
  46   1.0000      -0.488328       -13.2881    9-Bg
  47   1.0000      -0.405796       -11.0423   14-Bu
  48   1.0000      -0.403088       -10.9686   10-Bg
  49   1.0000      -0.383776       -10.4431   14-Ag
  50   1.0000      -0.377183       -10.2637   13-Au
  51   1.0000      -0.320250        -8.7145   15-Ag
  52   1.0000      -0.317283        -8.6337   14-Au
  53   1.0000      -0.298379        -8.1193   15-Bu
  54   1.0000      -0.294491        -8.0135   11-Bg
  55   1.0000      -0.231351        -6.2954   16-Ag
  56   1.0000      -0.226004        -6.1499   15-Au
  57   1.0000      -0.188340        -5.1250   17-Ag
  58   1.0000      -0.187520        -5.1027   16-Au
  59   1.0000      -0.177262        -4.8236   16-Bu
  60   1.0000      -0.173986        -4.7344   12-Bg
  61   1.0000      -0.146426        -3.9844   17-Bu
  62   1.0000      -0.142633        -3.8812   13-Bg
  63   1.0000      -0.129169        -3.5149   18-Ag
  64   1.0000      -0.116422        -3.1680   18-Bu
  65   1.0000      -0.116029        -3.1573   14-Bg
  66   1.0000      -0.112419        -3.0591   17-Au
  67   1.0000      -0.085888        -2.3371   19-Ag
  68   1.0000      -0.068027        -1.8511   19-Bu
  69   1.0000      -0.060981        -1.6594   18-Au
  70   1.0000      -0.051145        -1.3917   15-Bg
  71   1.0000      -0.035448        -0.9646   16-Bg
  72   1.0000      -0.035206        -0.9580   20-Bu
  73   1.0000      -0.024869        -0.6767   20-Ag
  74   1.0000      -0.020239        -0.5507   21-Ag
  75   1.0000      -0.018238        -0.4963   19-Au
  76   1.0000      -0.002651        -0.0721   17-Bg
  77   1.0000       0.006734         0.1832   22-Ag
  78   1.0000       0.010403         0.2831   23-Ag
  79   1.0000       0.014183         0.3859   18-Bg
  80   1.0000       0.025729         0.7001   20-Au
  81   1.0000       0.034139         0.9290   24-Ag
  82   1.0000       0.042660         1.1609   21-Bu
  83   1.0000       0.052740         1.4351   21-Au
  84   1.0000       0.057710         1.5704   25-Ag
  85   1.0000       0.064761         1.7622   22-Bu
  86   1.0000       0.091573         2.4918   19-Bg
  87   0.0000       0.138170         3.7598   20-Bg
  88   0.0000       0.182613         4.9691   26-Ag
  89   0.0000       0.182709         4.9718   22-Au
  90   0.0000       0.198472         5.4007   23-Bu
  91   0.0000       0.198488         5.4011   21-Bg

MULLIKEN ATOMIC CHARGES AND SPIN POPULATIONS
--------------------------------------------
   0 Cu:    0.144740    0.374329
   1 S :   -0.423861    0.162718
   2 C :    0.023488   -0.006938
   3 S :   -0.423861    0.162718
   4 C :    0.023488   -0.006938
   5 S :   -0.423861    0.162718
   6 C :    0.023488   -0.006938
   7 S :   -0.423861    0.162718
   8 C :    0.023488   -0.006938
   9 C :   -0.087007   -0.001461
  10 C :   -0.087007   -0.001461
  11 C :   -0.139491   -0.000848
  12 H :    0.060185    0.001889
  13 C :   -0.139491   -0.000848
  14 H :    0.060185    0.001889
  15 H :    0.030500    0.001059
  16 H :    0.030500    0.001059
  17 C :   -0.087007   -0.001461
  18 C :   -0.087007   -0.001461
  19 C :   -0.139491   -0.000848
  20 H :    0.060185    0.001889
  21 C :   -0.139491   -0.000848
  22 H :    0.060185    0.001889
  23 H :    0.030500    0.001059
  24 H :    0.030500    0.001059
Sum of atomic charges         :   -2.0000000

LOEWDIN ATOMIC CHARGES AND SPIN POPULATIONS
-------------------------------------------
   0 Cu:   -0.894895    0.440884
   1 S :    0.007099    0.124440
   2 C :   -0.038281    0.005547
   3 S :    0.007099    0.124440
   4 C :   -0.038281    0.005547
   5 S :    0.007099    0.124440
   6 C :   -0.038281    0.005547
   7 S :    0.007099    0.124440
   8 C :   -0.038281    0.005547
   9 C :    0.303959    0.003853
  10 C :    0.303959    0.003853
  11 C :    0.311151   -0.000127
  12 H :   -0.441947    0.005854
  13 C :    0.311151   -0.000127
  14 H :   -0.441947    0.005854
  15 H :   -0.418257    0.000212
  16 H :   -0.418257    0.000212
  17 C :    0.303959    0.003853
  18 C :    0.303959    0.003853
  19 C :    0.311151   -0.000127
  20 H :   -0.441947    0.005854
  21 C :    0.311151   -0.000127
  22 H :   -0.441947    0.005854
  23 H :   -0.418257    0.000212
  24 H :   -0.418257    0.000212

  Mayer bond orders larger than 0.100000
B(  0-Cu,  1-S ) :   0.6989 B(  0-Cu,  3-S ) :   0.6989 B(  0-Cu,  5-S ) :   0.6989
B(  0-Cu,  7-S ) :   0.6989 B(  1-S ,  2-C ) :   1.1841 B(  2-C ,  6-C ) :   1.2455
B(  2-C , 17-C ) :   1.3143 B(  3-S ,  4-C ) :   1.1841 B(  4-C ,  8-C ) :   1.2455
B(  4-C , 10-C ) :   1.3143 B(  5-S ,  6-C ) :   1.1841 B(  6-C , 18-C ) :   1.3143
B(  7-S ,  8-C ) :   1.1841 B(  8-C ,  9-C ) :   1.3143 B(  9-C , 13-C ) :   1.3656
B(  9-C , 14-H ) :   0.9718 B( 10-C , 11-C ) :   1.3656 B( 10-C , 12-H ) :   0.9718
B( 11-C , 13-C ) :   1.3356 B( 11-C , 15-H ) :   0.9891 B( 13-C , 16-H ) :   0.9891
B( 17-C , 19-C ) :   1.3656 B( 17-C , 20-H ) :   0.9718 B( 18-C , 21-C ) :   1.3656
B( 18-C , 22-H ) :   0.9718 B( 19-C , 21-C ) :   1.3356 B( 19-C , 23-H ) :   0.9891
B( 21-C , 24-H ) :   0.9891

FINAL SINGLE POINT ENERGY     -3686.926160350426

DIPOLE MOMENT
-------------
                                X             Y             Z
Electronic contribution:     -0.00000      -0.00000       0.00000
Nuclear contribution   :     -0.00000      -0.00000       0.00000
                        -----------------------------------------
Total Dipole Moment    :     -0.00000      -0.00000       0.00000
                        -----------------------------------------
Magnitude (a.u.)       :      0.00000
Magnitude (Debye)      :      0.00000

Rotational constants in cm-1:     0.033290     0.004801     0.004200
Rotational constants in MHz :   997.995031   143.935444   125.919615

                             ****ORCA TERMINATED NORMALLY****
TOTAL RUN TIME: 0 days 6 hours 55 minutes 31 seconds 76 msec
