                         Program Version 5.0.4 -  RELEASE  -
|  1> ! RIJCOSX nofrozencore ReducedPop printbasis
|  2> ! M06L ano-rcc-dzp autoaux
|  3>
|  4> %maxcore 5000
|  5> %basis
|  6> PCDTrimBas overlap
|  7> PCDTrimAuxJ Coulomb
|  8> PCDTrimAuxJK Coulomb
|  9> PCDTrimAuxC Coulomb
| 10> PCDThresh -1
| 11> end
| 12>
| 13> %basis
| 14> newgto Cu "ano-rcc-tzp" end
| 15> newgto S "ano-rcc-tzp" end
| 16> end
| 17>
| 18> %pal
| 19> nprocs 12
| 20> end
| 21>
| 22> % sym SymThresh 1e-2 end
| 23> * xyz -2 2
| 24> Cu -0.006362557350753801 0.000524482981603566 0.001425793309136013
| 25> S 1.4602560507585118 0.6783038661992989 -1.5424614264558574
| 26> C 0.4779681946497902 1.616311290371323 -2.626368936846156
| 27> S 1.7444962436137932 -1.0938238466087187 1.054582386486931
| 28> C 0.9264418635087917 -1.8006505073877435 2.415985950124839
| 29> S -1.744492275095845 1.096693137902768 -1.0589532735503036
| 30> C -0.9198892211879939 1.8011529805598976 -2.4190389003908854
| 31> S -1.4618670323652363 -0.6810173071061426 1.5471568571824108
| 32> C -0.4715655060719793 -1.6174522389643733 2.6258671049185285
| 33> C -1.0678307669859821 -2.2114996711723083 3.738147714926325
| 34> C 1.6320179840597655 -2.5753279504843487 3.348093045836777
| 35> C 1.017992736826019 -3.156822342334537 4.447482759649998
| 36> H 2.696748770261338 -2.7141119774609614 3.187119022504637
| 37> C -0.3490741152043087 -2.974818203907011 4.648362895375618
| 38> H -2.133405500160719 -2.0595272833873826 3.8793480076368487
| 39> H 1.6049969071319998 -3.749308684604404 5.143816702792267
| 40> H -0.8505610716666641 -3.420826484472319 5.502268596757978
| 41> C 1.0763019970823005 2.2115074513260957 -3.7411241030267637
| 42> C -1.627681903528777 2.5744129491765637 -3.3482126461525645
| 43> C 0.3538857980821295 2.9736389970047585 -4.648254138927681
| 44> H 2.1416698755719157 2.059833065134513 -3.8827092310132283
| 45> C -1.0125399428041384 3.1565106047684584 -4.448910571277923
| 46> H -2.692118859564568 2.712711792333713 -3.18660123244161
| 47> H 0.8542600743234 3.420272278821551 -5.502723768639929
| 48> H -1.5986385600842186 3.749144174606245 -5.145785036168623
| 49> *
| 50>
| 51> % eprnmr
| 52> gtensor true
| 53> Nuclei = all H {aiso,adip,aorb,fgrad,rho}
| 54> Nuclei = all Cu {aiso,adip,aorb,fgrad,rho}
| 55> end
| 56>
| 57>                          ****END OF INPUT****

CARTESIAN COORDINATES (ANGSTROEM)
---------------------------------
  Cu     0.001301   -0.006411    0.000000
  S     -1.749973    1.381747    0.000000
  C     -3.106634    0.295896    0.000000
  S      1.369809    1.864265    0.000000
  C      2.944119    1.126848    0.000000
  S     -1.375028   -1.864583    0.000000
  C     -2.947352   -1.120363    0.000000
  S      1.755478   -1.383051    0.000000
  C      3.106439   -0.289376    0.000000
  C      4.397224   -0.818022    0.000000
  C      4.101987    1.918131    0.000000
  C      5.376253    1.370346    0.000000
  H      3.977017    2.996652    0.000000
  C      5.529779   -0.014854    0.000000
  H      4.498525   -1.898865    0.000000
  H      6.245028    2.022822    0.000000
  H      6.517959   -0.465483    0.000000
  C     -4.400242    0.826478    0.000000
  C     -4.101857   -1.913700    0.000000
  C     -5.529343    0.019790    0.000000
  H     -4.502014    1.907081    0.000000
  C     -5.377614   -1.364868    0.000000
  H     -3.976108   -2.991873    0.000000
  H     -6.518267    0.469239    0.000000
  H     -6.246978   -2.016456    0.000000

 Total Charge           Charge          ....   -2
 Multiplicity           Mult            ....    2
 Number of Electrons    NEL             ....  175
 Basis Dimension        Dim             ....  475

ORBITAL ENERGIES
----------------
                 SPIN UP ORBITALS
  NO   OCC          E(Eh)            E(eV)    Irrep
   0   1.0000    -318.180422     -8658.1295    1-A'
   1   1.0000     -88.011101     -2394.9038    2-A'
   2   1.0000     -88.011057     -2394.9026    3-A'
   3   1.0000     -88.010980     -2394.9005    4-A'
   4   1.0000     -88.010935     -2394.8993    5-A'
   5   1.0000     -38.026115     -1034.7432    6-A'
   6   1.0000     -33.529035      -912.3714    7-A'
   7   1.0000     -33.528107      -912.3462    8-A'
   8   1.0000     -33.514375      -911.9725    1-A"
   9   1.0000      -9.829721      -267.4803    9-A'
  10   1.0000      -9.829548      -267.4756   10-A'
  11   1.0000      -9.828578      -267.4492   11-A'
  12   1.0000      -9.828158      -267.4378   12-A'
  13   1.0000      -9.820862      -267.2392   13-A'
  14   1.0000      -9.820822      -267.2382   14-A'
  15   1.0000      -9.820375      -267.2260   15-A'
  16   1.0000      -9.820314      -267.2243   16-A'
  17   1.0000      -9.813350      -267.0348   17-A'
  18   1.0000      -9.813278      -267.0329   18-A'
  19   1.0000      -9.812735      -267.0181   19-A'
  20   1.0000      -9.812310      -267.0065   20-A'
  21   1.0000      -7.580323      -206.2711   21-A'
  22   1.0000      -7.580307      -206.2706   22-A'
  23   1.0000      -7.579885      -206.2591   23-A'
  24   1.0000      -7.579849      -206.2582   24-A'
  25   1.0000      -5.503501      -149.7579   25-A'
  26   1.0000      -5.503483      -149.7574   26-A'
  27   1.0000      -5.503095      -149.7468   27-A'
  28   1.0000      -5.503062      -149.7459   28-A'
  29   1.0000      -5.498100      -149.6109   29-A'
  30   1.0000      -5.498087      -149.6106   30-A'
  31   1.0000      -5.497825      -149.6034   31-A'
  32   1.0000      -5.497797      -149.6027   32-A'
  33   1.0000      -5.496365      -149.5637    2-A"
  34   1.0000      -5.496338      -149.5630    3-A"
  35   1.0000      -5.495954      -149.5525    4-A"
  36   1.0000      -5.495907      -149.5512    5-A"
  37   1.0000      -4.022974      -109.4707   33-A'
  38   1.0000      -2.544842       -69.2487   34-A'
  39   1.0000      -2.542463       -69.1839   35-A'
  40   1.0000      -2.515109       -68.4396    6-A"
  41   1.0000      -0.587599       -15.9894   36-A'
  42   1.0000      -0.587404       -15.9841   37-A'
  43   1.0000      -0.502568       -13.6756   38-A'
  44   1.0000      -0.501007       -13.6331   39-A'
  45   1.0000      -0.488948       -13.3049   40-A'
  46   1.0000      -0.488538       -13.2938   41-A'
  47   1.0000      -0.409628       -11.1465   42-A'
  48   1.0000      -0.405812       -11.0427   43-A'
  49   1.0000      -0.386951       -10.5295   44-A'
  50   1.0000      -0.377947       -10.2845   45-A'
  51   1.0000      -0.320348        -8.7171   46-A'
  52   1.0000      -0.317017        -8.6265   47-A'
  53   1.0000      -0.299033        -8.1371   48-A'
  54   1.0000      -0.293920        -7.9980   49-A'
  55   1.0000      -0.231586        -6.3018   50-A'
  56   1.0000      -0.224669        -6.1136   51-A'
  57   1.0000      -0.188316        -5.1243   52-A'
  58   1.0000      -0.187119        -5.0918   53-A'
  59   1.0000      -0.176055        -4.7907   54-A'
  60   1.0000      -0.171806        -4.6751   55-A'
  61   1.0000      -0.145486        -3.9589   56-A'
  62   1.0000      -0.141267        -3.8441   57-A'
  63   1.0000      -0.131630        -3.5818   58-A'
  64   1.0000      -0.115130        -3.1329    7-A"
  65   1.0000      -0.114947        -3.1279    8-A"
  66   1.0000      -0.109831        -2.9887   59-A'
  67   1.0000      -0.085380        -2.3233   60-A'
  68   1.0000      -0.069851        -1.9007   61-A'
  69   1.0000      -0.062783        -1.7084   62-A'
  70   1.0000      -0.056527        -1.5382   63-A'
  71   1.0000      -0.037317        -1.0155    9-A"
  72   1.0000      -0.035615        -0.9691   10-A"
  73   1.0000      -0.032581        -0.8866   64-A'
  74   1.0000      -0.027800        -0.7565   65-A'
  75   1.0000      -0.027120        -0.7380   11-A"
  76   1.0000      -0.017765        -0.4834   12-A"
  77   1.0000      -0.001888        -0.0514   13-A"
  78   1.0000       0.000150         0.0041   66-A'
  79   1.0000       0.003662         0.0996   14-A"
  80   1.0000       0.020076         0.5463   67-A'
  81   1.0000       0.024255         0.6600   68-A'
  82   1.0000       0.030893         0.8407   69-A'
  83   1.0000       0.052946         1.4407   15-A"
  84   1.0000       0.054903         1.4940   16-A"
  85   1.0000       0.063324         1.7231   17-A"
  86   1.0000       0.092449         2.5157   18-A"
  87   1.0000       0.113588         3.0909   70-A'
  88   0.0000       0.182682         4.9710   71-A'
  89   0.0000       0.182824         4.9749   72-A'
  90   0.0000       0.197773         5.3817   73-A'
  91   0.0000       0.197954         5.3866   74-A'
  92   0.0000       0.203891         5.5482   19-A"

                 SPIN DOWN ORBITALS
  NO   OCC          E(Eh)            E(eV)    Irrep
   0   1.0000    -318.180243     -8658.1246    1-A'
   1   1.0000     -88.010108     -2394.8768    2-A'
   2   1.0000     -88.010069     -2394.8757    3-A'
   3   1.0000     -88.009824     -2394.8691    4-A'
   4   1.0000     -88.009782     -2394.8679    5-A'
   5   1.0000     -38.010108     -1034.3076    6-A'
   6   1.0000     -33.513752      -911.9555    7-A'
   7   1.0000     -33.512862      -911.9313    8-A'
   8   1.0000     -33.509997      -911.8534    1-A"
   9   1.0000      -9.829854      -267.4839    9-A'
  10   1.0000      -9.829679      -267.4792   10-A'
  11   1.0000      -9.828674      -267.4518   11-A'
  12   1.0000      -9.828251      -267.4403   12-A'
  13   1.0000      -9.820836      -267.2385   13-A'
  14   1.0000      -9.820797      -267.2375   14-A'
  15   1.0000      -9.820350      -267.2253   15-A'
  16   1.0000      -9.820289      -267.2237   16-A'
  17   1.0000      -9.813281      -267.0329   17-A'
  18   1.0000      -9.813207      -267.0310   18-A'
  19   1.0000      -9.812680      -267.0166   19-A'
  20   1.0000      -9.812256      -267.0051   20-A'
  21   1.0000      -7.579647      -206.2527   21-A'
  22   1.0000      -7.579634      -206.2523   22-A'
  23   1.0000      -7.579102      -206.2378   23-A'
  24   1.0000      -7.579069      -206.2369   24-A'
  25   1.0000      -5.502620      -149.7339   25-A'
  26   1.0000      -5.502608      -149.7336   26-A'
  27   1.0000      -5.502081      -149.7192   27-A'
  28   1.0000      -5.502050      -149.7184   28-A'
  29   1.0000      -5.496056      -149.5553   29-A'
  30   1.0000      -5.496055      -149.5553   30-A'
  31   1.0000      -5.495604      -149.5430    2-A"
  32   1.0000      -5.495584      -149.5424    3-A"
  33   1.0000      -5.495439      -149.5385   31-A'
  34   1.0000      -5.495417      -149.5379   32-A'
  35   1.0000      -5.495072      -149.5285    4-A"
  36   1.0000      -5.495028      -149.5273    5-A"
  37   1.0000      -3.989059      -108.5478   33-A'
  38   1.0000      -2.503288       -68.1179    6-A"
  39   1.0000      -2.502181       -68.0878   34-A'
  40   1.0000      -2.500606       -68.0449   35-A'
  41   1.0000      -0.587218       -15.9790   36-A'
  42   1.0000      -0.587036       -15.9741   37-A'
  43   1.0000      -0.501232       -13.6392   38-A'
  44   1.0000      -0.499775       -13.5996   39-A'
  45   1.0000      -0.487820       -13.2743   40-A'
  46   1.0000      -0.487454       -13.2643   41-A'
  47   1.0000      -0.405708       -11.0399   42-A'
  48   1.0000      -0.401807       -10.9337   43-A'
  49   1.0000      -0.383729       -10.4418   44-A'
  50   1.0000      -0.374846       -10.2001   45-A'
  51   1.0000      -0.319183        -8.6854   46-A'
  52   1.0000      -0.315467        -8.5843   47-A'
  53   1.0000      -0.297246        -8.0885   48-A'
  54   1.0000      -0.291601        -7.9349   49-A'
  55   1.0000      -0.230969        -6.2850   50-A'
  56   1.0000      -0.223930        -6.0934   51-A'
  57   1.0000      -0.187302        -5.0968   52-A'
  58   1.0000      -0.186217        -5.0672   53-A'
  59   1.0000      -0.175481        -4.7751   54-A'
  60   1.0000      -0.170899        -4.6504   55-A'
  61   1.0000      -0.144745        -3.9387   56-A'
  62   1.0000      -0.139558        -3.7976   57-A'
  63   1.0000      -0.130167        -3.5420   58-A'
  64   1.0000      -0.114950        -3.1279    7-A"
  65   1.0000      -0.114742        -3.1223    8-A"
  66   1.0000      -0.108921        -2.9639   59-A'
  67   1.0000      -0.083928        -2.2838   60-A'
  68   1.0000      -0.068316        -1.8590   61-A'
  69   1.0000      -0.054746        -1.4897   62-A'
  70   1.0000      -0.045180        -1.2294   63-A'
  71   1.0000      -0.035051        -0.9538    9-A"
  72   1.0000      -0.034714        -0.9446   10-A"
  73   1.0000      -0.023432        -0.6376   11-A"
  74   1.0000      -0.022289        -0.6065   64-A'
  75   1.0000      -0.016943        -0.4610   12-A"
  76   1.0000      -0.006242        -0.1698   65-A'
  77   1.0000       0.006722         0.1829   13-A"
  78   1.0000       0.010473         0.2850   66-A'
  79   1.0000       0.015770         0.4291   14-A"
  80   1.0000       0.031068         0.8454   67-A'
  81   1.0000       0.036303         0.9879   68-A'
  82   1.0000       0.039066         1.0630   69-A'
  83   1.0000       0.055701         1.5157   15-A"
  84   1.0000       0.060877         1.6566   16-A"
  85   1.0000       0.065133         1.7724   17-A"
  86   1.0000       0.096672         2.6306   18-A"
  87   0.0000       0.147189         4.0052   70-A'
  88   0.0000       0.184283         5.0146   71-A'
  89   0.0000       0.184404         5.0179   72-A'
  90   0.0000       0.200432         5.4540   73-A'
  91   0.0000       0.200659         5.4602   74-A'

MULLIKEN ATOMIC CHARGES AND SPIN POPULATIONS
--------------------------------------------
   0 Cu:    0.126891    0.376027
   1 S :   -0.409166    0.152723
   2 C :    0.021815   -0.006029
   3 S :   -0.428820    0.171747
   4 C :    0.016900   -0.008119
   5 S :   -0.429014    0.171706
   6 C :    0.018898   -0.008128
   7 S :   -0.410433    0.152043
   8 C :    0.023200   -0.005996
   9 C :   -0.081788   -0.001822
  10 C :   -0.091247   -0.001599
  11 C :   -0.137230   -0.000829
  12 H :    0.063785    0.002409
  13 C :   -0.143171   -0.001088
  14 H :    0.065472    0.002512
  15 H :    0.030060    0.001208
  16 H :    0.029561    0.001226
  17 C :   -0.085542   -0.001827
  18 C :   -0.090068   -0.001627
  19 C :   -0.140129   -0.001070
  20 H :    0.064958    0.002492
  21 C :   -0.138899   -0.000830
  22 H :    0.063949    0.002425
  23 H :    0.029938    0.001248
  24 H :    0.030080    0.001198
Sum of atomic charges         :   -2.0000000

LOEWDIN ATOMIC CHARGES AND SPIN POPULATIONS
-------------------------------------------
   0 Cu:   -0.933722    0.445214
   1 S :    0.023119    0.110018
   2 C :   -0.029027    0.004910
   3 S :    0.006072    0.135799
   4 C :   -0.034286    0.005455
   5 S :    0.007862    0.135148
   6 C :   -0.034342    0.005383
   7 S :    0.025889    0.108951
   8 C :   -0.029399    0.004842
   9 C :    0.304354    0.003982
  10 C :    0.304668    0.004385
  11 C :    0.310650   -0.000064
  12 H :   -0.447079    0.007057
  13 C :    0.312286   -0.000126
  14 H :   -0.448766    0.006413
  15 H :   -0.419124    0.000277
  16 H :   -0.418564    0.000202
  17 C :    0.305329    0.003956
  18 C :    0.305030    0.004431
  19 C :    0.311312   -0.000122
  20 H :   -0.447811    0.006336
  21 C :    0.311097   -0.000057
  22 H :   -0.447578    0.007119
  23 H :   -0.418701    0.000222
  24 H :   -0.419268    0.000268

  Mayer bond orders larger than 0.100000
B(  0-Cu,  1-S ) :   0.7610 B(  0-Cu,  3-S ) :   0.6800 B(  0-Cu,  5-S ) :   0.6860
B(  0-Cu,  7-S ) :   0.7672 B(  1-S ,  2-C ) :   1.1814 B(  2-C ,  6-C ) :   1.2458
B(  2-C , 17-C ) :   1.3173 B(  3-S ,  4-C ) :   1.1875 B(  4-C ,  8-C ) :   1.2454
B(  4-C , 10-C ) :   1.3161 B(  5-S ,  6-C ) :   1.1850 B(  6-C , 18-C ) :   1.3173
B(  7-S ,  8-C ) :   1.1797 B(  8-C ,  9-C ) :   1.3185 B(  9-C , 13-C ) :   1.3600
B(  9-C , 14-H ) :   0.9677 B( 10-C , 11-C ) :   1.3632 B( 10-C , 12-H ) :   0.9701
B( 11-C , 13-C ) :   1.3387 B( 11-C , 15-H ) :   0.9887 B( 13-C , 16-H ) :   0.9896
B( 17-C , 19-C ) :   1.3610 B( 17-C , 20-H ) :   0.9684 B( 18-C , 21-C ) :   1.3618
B( 18-C , 22-H ) :   0.9699 B( 19-C , 21-C ) :   1.3391 B( 19-C , 23-H ) :   0.9891
B( 21-C , 24-H ) :   0.9888

FINAL SINGLE POINT ENERGY     -3686.924634094024

DIPOLE MOMENT
-------------
                                X             Y             Z
Electronic contribution:      0.00946      -0.05880       0.00000
Nuclear contribution   :     -0.01130       0.05500       0.00000
                        -----------------------------------------
Total Dipole Moment    :     -0.00184      -0.00380       0.00000
                        -----------------------------------------
Magnitude (a.u.)       :      0.00422
Magnitude (Debye)      :      0.01074

Rotational constants in cm-1:     0.032904     0.005044     0.004374
Rotational constants in MHz :   986.434294   151.224976   131.123181

                             ****ORCA TERMINATED NORMALLY****
TOTAL RUN TIME: 0 days 6 hours 9 minutes 38 seconds 730 msec
