                         Program Version 5.0.4 -  RELEASE  -
|  1> ! RIJCOSX nofrozencore ReducedPop printbasis
|  2> ! M06L ano-rcc-dzp autoaux
|  3>
|  4> %maxcore 5000
|  5> %basis
|  6> PCDTrimBas overlap
|  7> PCDTrimAuxJ Coulomb
|  8> PCDTrimAuxJK Coulomb
|  9> PCDTrimAuxC Coulomb
| 10> PCDThresh -1
| 11> end
| 12>
| 13> %basis
| 14> newgto Cu "ano-rcc-tzp" end
| 15> newgto S "ano-rcc-tzp" end
| 16> end
| 17>
| 18> %pal
| 19> nprocs 12
| 20> end
| 21>
| 22> % sym SymThresh 1e-2 end
| 23> * xyz -2 2
| 24> Cu 0.0 0.0 0.0
| 25> S -1.889838414526629 -1.2677764291347284 -0.4398002272803815
| 26> C -1.2714288915240994 -2.782421558463804 -1.039992723635918
| 27> S -1.2856964264490853 1.773745046282193 0.7569583138432605
| 28> C -0.12792995602218923 3.00959453296595 1.1690242838635234
| 29> S 1.2858163201460981 -1.7750735398584752 -0.753631786176279
| 30> C 0.12597730117053324 -2.98795795413192 -1.2232019474933726
| 31> S 1.889718520829616 1.2691049227110105 0.43647369961339993
| 32> C 1.2733815463757554 2.760784979629774 1.0941703872657673
| 33> C 2.1496658871079144 3.8165100170165647 1.3952651856603342
| 34> C -0.5557883675277995 4.212887550818612 1.7539226999110709
| 35> C 0.33333517729294876 5.223218546387129 2.099947363426428
| 36> H -1.6328426704766505 4.469218186587914 1.6164713787480163
| 37> C 1.7005772786716002 5.022904658156628 1.918689211875476
| 38> H 3.2229380918373356 3.541057492658325 1.5253541437617835
| 39> H -0.04937434651383109 6.249954184043776 2.2771615236179534
| 40> H 2.422744867409929 5.706311597099401 2.4120731000018902
| 41> C -2.1523532443705067 -3.786729568796855 -1.4698323227702998
| 42> C 0.5584752899081201 -4.242663180283719 -1.679367628889183
| 43> C -1.7019377576793608 -5.007829740396076 -1.9564365761858755
| 44> H -3.2110633637933264 -3.6726365524389055 -1.1958821835130558
| 45> C -0.3319742299504342 -5.238298653575713 -2.062187004867329
| 46> H 1.620971540840169 -4.3376819283610795 -1.945838815896617
| 47> H -2.411226922749586 -5.833948017612115 -2.092472958137868
| 48> H 0.03785065616179479 -6.1222755641193665 -2.5968663516638695
| 49> *
| 50>
| 51> % eprnmr
| 52> gtensor true
| 53> Nuclei = all H {aiso,adip,aorb,fgrad,rho}
| 54> Nuclei = all Cu {aiso,adip,aorb,fgrad,rho}
| 55> end
| 56>
| 57>                          ****END OF INPUT****

CARTESIAN COORDINATES (ANGSTROEM)
---------------------------------
  Cu    -0.000000    0.000000    0.000000
  S      0.110867   -1.611789   -1.661931
  C      0.072999   -0.708385   -3.151642
  S      0.114442   -1.611540    1.661931
  C      0.014769   -0.712445    3.151642
  S     -0.110867    1.611789   -1.661931
  C     -0.072999    0.708385   -3.151642
  S     -0.114442    1.611540    1.661931
  C     -0.014769    0.712445    3.151642
  C     -0.143453    1.371397    4.385461
  C      0.143453   -1.371397    4.385461
  C      0.072499   -0.693056    5.596188
  H     -0.039136   -2.471956    4.375043
  C     -0.072499    0.693056    5.596188
  H      0.039136    2.471956    4.375043
  H     -0.117236   -1.261957    6.530201
  H      0.117236    1.261957    6.530201
  C      0.063315   -1.376984   -4.385460
  C     -0.063315    1.376984   -4.385460
  C      0.031921   -0.695885   -5.596188
  H      0.314921   -2.447273   -4.375043
  C     -0.031921    0.695885   -5.596188
  H     -0.314921    2.447273   -4.375043
  H      0.226324   -1.238006   -6.530201
  H     -0.226324    1.238006   -6.530201

 Total Charge           Charge          ....   -2
 Multiplicity           Mult            ....    2
 Number of Electrons    NEL             ....  175
 Basis Dimension        Dim             ....  475

ORBITAL ENERGIES
----------------
                 SPIN UP ORBITALS
  NO   OCC          E(Eh)            E(eV)    Irrep
   0   1.0000    -318.182820     -8658.1947    1-A
   1   1.0000     -88.016207     -2395.0427    1-B
   2   1.0000     -88.016199     -2395.0425    2-A
   3   1.0000     -88.015805     -2395.0318    2-B
   4   1.0000     -88.015793     -2395.0315    3-A
   5   1.0000     -38.028032     -1034.7954    4-A
   6   1.0000     -33.531169      -912.4295    3-B
   7   1.0000     -33.530311      -912.4062    5-A
   8   1.0000     -33.516567      -912.0322    4-B
   9   1.0000      -9.834886      -267.6208    6-A
  10   1.0000      -9.834560      -267.6120    5-B
  11   1.0000      -9.834118      -267.6000    7-A
  12   1.0000      -9.833791      -267.5910    6-B
  13   1.0000      -9.825794      -267.3734    8-A
  14   1.0000      -9.825366      -267.3618    7-B
  15   1.0000      -9.825109      -267.3548    9-A
  16   1.0000      -9.824680      -267.3431    8-B
  17   1.0000      -9.820242      -267.2224    9-B
  18   1.0000      -9.820239      -267.2223   10-A
  19   1.0000      -9.818656      -267.1792   10-B
  20   1.0000      -9.818652      -267.1791   11-A
  21   1.0000      -7.584872      -206.3949   11-B
  22   1.0000      -7.584863      -206.3946   12-A
  23   1.0000      -7.584490      -206.3845   12-B
  24   1.0000      -7.584481      -206.3842   13-A
  25   1.0000      -5.508066      -149.8821   13-B
  26   1.0000      -5.508066      -149.8821   14-A
  27   1.0000      -5.507687      -149.8718   14-B
  28   1.0000      -5.507687      -149.8718   15-A
  29   1.0000      -5.502750      -149.7374   15-B
  30   1.0000      -5.502750      -149.7374   16-A
  31   1.0000      -5.502385      -149.7275   16-B
  32   1.0000      -5.502385      -149.7275   17-A
  33   1.0000      -5.500987      -149.6895   18-A
  34   1.0000      -5.500987      -149.6895   17-B
  35   1.0000      -5.500578      -149.6783   19-A
  36   1.0000      -5.500578      -149.6783   18-B
  37   1.0000      -4.025632      -109.5430   20-A
  38   1.0000      -2.547067       -69.3092   19-B
  39   1.0000      -2.545509       -69.2668   21-A
  40   1.0000      -2.518140       -68.5221   20-B
  41   1.0000      -0.590382       -16.0651   22-A
  42   1.0000      -0.590261       -16.0618   23-A
  43   1.0000      -0.505191       -13.7469   24-A
  44   1.0000      -0.504045       -13.7158   25-A
  45   1.0000      -0.490357       -13.3433   21-B
  46   1.0000      -0.489767       -13.3272   22-B
  47   1.0000      -0.410381       -11.1670   23-B
  48   1.0000      -0.407754       -11.0956   24-B
  49   1.0000      -0.388204       -10.5636   26-A
  50   1.0000      -0.381442       -10.3796   27-A
  51   1.0000      -0.320719        -8.7272   28-A
  52   1.0000      -0.317553        -8.6411   29-A
  53   1.0000      -0.299012        -8.1365   25-B
  54   1.0000      -0.295135        -8.0310   26-B
  55   1.0000      -0.230351        -6.2682   30-A
  56   1.0000      -0.224261        -6.1025   31-A
  57   1.0000      -0.190441        -5.1821   32-A
  58   1.0000      -0.189544        -5.1577   33-A
  59   1.0000      -0.174209        -4.7405   27-B
  60   1.0000      -0.169395        -4.6095   28-B
  61   1.0000      -0.151649        -4.1266   29-B
  62   1.0000      -0.148401        -4.0382   30-B
  63   1.0000      -0.130647        -3.5551   34-A
  64   1.0000      -0.113760        -3.0956   31-B
  65   1.0000      -0.111589        -3.0365   35-A
  66   1.0000      -0.109974        -2.9926   32-B
  67   1.0000      -0.085445        -2.3251   36-A
  68   1.0000      -0.072786        -1.9806   33-B
  69   1.0000      -0.068100        -1.8531   34-B
  70   1.0000      -0.062896        -1.7115   37-A
  71   1.0000      -0.038680        -1.0525   35-B
  72   1.0000      -0.036654        -0.9974   36-B
  73   1.0000      -0.030529        -0.8307   38-A
  74   1.0000      -0.029010        -0.7894   37-B
  75   1.0000      -0.027526        -0.7490   39-A
  76   1.0000      -0.020671        -0.5625   40-A
  77   1.0000      -0.004282        -0.1165   41-A
  78   1.0000      -0.001973        -0.0537   42-A
  79   1.0000       0.000293         0.0080   38-B
  80   1.0000       0.017036         0.4636   43-A
  81   1.0000       0.017683         0.4812   44-A
  82   1.0000       0.033448         0.9102   39-B
  83   1.0000       0.048135         1.3098   45-A
  84   1.0000       0.050522         1.3748   46-A
  85   1.0000       0.061123         1.6632   40-B
  86   1.0000       0.086014         2.3406   41-B
  87   1.0000       0.103761         2.8235   42-B
  88   0.0000       0.181157         4.9295   47-A
  89   0.0000       0.181358         4.9350   48-A
  90   0.0000       0.194331         5.2880   43-B
  91   0.0000       0.196418         5.3448   44-B
  92   0.0000       0.196646         5.3510   45-B

                 SPIN DOWN ORBITALS
  NO   OCC          E(Eh)            E(eV)    Irrep
   0   1.0000    -318.182646     -8658.1900    1-A
   1   1.0000     -88.015136     -2395.0136    1-B
   2   1.0000     -88.015127     -2395.0134    2-A
   3   1.0000     -88.014732     -2395.0026    2-B
   4   1.0000     -88.014721     -2395.0023    3-A
   5   1.0000     -38.012158     -1034.3634    4-A
   6   1.0000     -33.516005      -912.0168    3-B
   7   1.0000     -33.515180      -911.9944    5-A
   8   1.0000     -33.512238      -911.9144    4-B
   9   1.0000      -9.835001      -267.6240    6-A
  10   1.0000      -9.834676      -267.6151    5-B
  11   1.0000      -9.834234      -267.6031    7-A
  12   1.0000      -9.833905      -267.5942    6-B
  13   1.0000      -9.825770      -267.3728    8-A
  14   1.0000      -9.825343      -267.3612    7-B
  15   1.0000      -9.825086      -267.3542    9-A
  16   1.0000      -9.824657      -267.3425    8-B
  17   1.0000      -9.820186      -267.2208    9-B
  18   1.0000      -9.820182      -267.2207   10-A
  19   1.0000      -9.818599      -267.1777   10-B
  20   1.0000      -9.818595      -267.1775   11-A
  21   1.0000      -7.584140      -206.3749   11-B
  22   1.0000      -7.584132      -206.3747   12-A
  23   1.0000      -7.583758      -206.3645   12-B
  24   1.0000      -7.583749      -206.3643   13-A
  25   1.0000      -5.507136      -149.8568   13-B
  26   1.0000      -5.507135      -149.8568   14-A
  27   1.0000      -5.506756      -149.8465   14-B
  28   1.0000      -5.506756      -149.8464   15-A
  29   1.0000      -5.500513      -149.6766   15-B
  30   1.0000      -5.500512      -149.6765   16-A
  31   1.0000      -5.500166      -149.6671   17-A
  32   1.0000      -5.500166      -149.6671   16-B
  33   1.0000      -5.500141      -149.6664   17-B
  34   1.0000      -5.500141      -149.6664   18-A
  35   1.0000      -5.499762      -149.6561   19-A
  36   1.0000      -5.499762      -149.6561   18-B
  37   1.0000      -3.991898      -108.6251   20-A
  38   1.0000      -2.506427       -68.2033   19-B
  39   1.0000      -2.505006       -68.1647   20-B
  40   1.0000      -2.503425       -68.1217   21-A
  41   1.0000      -0.590011       -16.0550   22-A
  42   1.0000      -0.589901       -16.0520   23-A
  43   1.0000      -0.503854       -13.7106   24-A
  44   1.0000      -0.502777       -13.6813   25-A
  45   1.0000      -0.489296       -13.3144   21-B
  46   1.0000      -0.488702       -13.2983   22-B
  47   1.0000      -0.406403       -11.0588   23-B
  48   1.0000      -0.403678       -10.9846   24-B
  49   1.0000      -0.384954       -10.4751   26-A
  50   1.0000      -0.378239       -10.2924   27-A
  51   1.0000      -0.319504        -8.6941   28-A
  52   1.0000      -0.316088        -8.6012   29-A
  53   1.0000      -0.297192        -8.0870   25-B
  54   1.0000      -0.292906        -7.9704   26-B
  55   1.0000      -0.229765        -6.2522   30-A
  56   1.0000      -0.223580        -6.0839   31-A
  57   1.0000      -0.189465        -5.1556   32-A
  58   1.0000      -0.188645        -5.1333   33-A
  59   1.0000      -0.173619        -4.7244   27-B
  60   1.0000      -0.168573        -4.5871   28-B
  61   1.0000      -0.151082        -4.1111   29-B
  62   1.0000      -0.147276        -4.0076   30-B
  63   1.0000      -0.129321        -3.5190   34-A
  64   1.0000      -0.113356        -3.0846   31-B
  65   1.0000      -0.110633        -3.0105   35-A
  66   1.0000      -0.109348        -2.9755   32-B
  67   1.0000      -0.084078        -2.2879   36-A
  68   1.0000      -0.071287        -1.9398   33-B
  69   1.0000      -0.061262        -1.6670   37-A
  70   1.0000      -0.055787        -1.5180   34-B
  71   1.0000      -0.035066        -0.9542   35-B
  72   1.0000      -0.031509        -0.8574   36-B
  73   1.0000      -0.024443        -0.6651   38-A
  74   1.0000      -0.023790        -0.6474   39-A
  75   1.0000      -0.019643        -0.5345   40-A
  76   1.0000      -0.003882        -0.1056   37-B
  77   1.0000       0.005332         0.1451   41-A
  78   1.0000       0.008844         0.2407   42-A
  79   1.0000       0.012412         0.3378   38-B
  80   1.0000       0.024509         0.6669   43-A
  81   1.0000       0.032763         0.8915   44-A
  82   1.0000       0.041773         1.1367   39-B
  83   1.0000       0.051009         1.3880   45-A
  84   1.0000       0.056136         1.5275   46-A
  85   1.0000       0.062959         1.7132   40-B
  86   1.0000       0.090167         2.4536   41-B
  87   0.0000       0.136808         3.7227   42-B
  88   0.0000       0.182252         4.9593   47-A
  89   0.0000       0.182409         4.9636   48-A
  90   0.0000       0.194420         5.2904   43-B
  91   0.0000       0.198161         5.3922   44-B

MULLIKEN ATOMIC CHARGES AND SPIN POPULATIONS
--------------------------------------------
   0 Cu:    0.140631    0.375293
   1 S :   -0.419240    0.163372
   2 C :    0.027750   -0.007705
   3 S :   -0.414582    0.163153
   4 C :    0.032321   -0.007850
   5 S :   -0.419240    0.163372
   6 C :    0.027750   -0.007705
   7 S :   -0.414582    0.163153
   8 C :    0.032321   -0.007850
   9 C :   -0.091205   -0.001390
  10 C :   -0.091205   -0.001390
  11 C :   -0.122032   -0.000793
  12 H :    0.043981    0.001742
  13 C :   -0.122032   -0.000793
  14 H :    0.043981    0.001742
  15 H :    0.015810    0.001139
  16 H :    0.015810    0.001139
  17 C :   -0.091586   -0.001490
  18 C :   -0.091586   -0.001490
  19 C :   -0.130251   -0.000831
  20 H :    0.054536    0.001888
  21 C :   -0.130251   -0.000831
  22 H :    0.054536    0.001888
  23 H :    0.024184    0.001117
  24 H :    0.024184    0.001117
Sum of atomic charges         :   -2.0000000

LOEWDIN ATOMIC CHARGES AND SPIN POPULATIONS
-------------------------------------------
   0 Cu:   -0.893598    0.442110
   1 S :    0.009550    0.124355
   2 C :   -0.039502    0.005110
   3 S :    0.009390    0.124229
   4 C :   -0.040876    0.005049
   5 S :    0.009550    0.124355
   6 C :   -0.039502    0.005110
   7 S :    0.009390    0.124229
   8 C :   -0.040876    0.005049
   9 C :    0.289778    0.003773
  10 C :    0.289778    0.003773
  11 C :    0.290895   -0.000097
  12 H :   -0.424253    0.006119
  13 C :    0.290895   -0.000097
  14 H :   -0.424253    0.006119
  15 H :   -0.402171    0.000243
  16 H :   -0.402171    0.000243
  17 C :    0.298658    0.003842
  18 C :    0.298658    0.003842
  19 C :    0.302035   -0.000108
  20 H :   -0.436151    0.006208
  21 C :    0.302035   -0.000108
  22 H :   -0.436151    0.006208
  23 H :   -0.410553    0.000223
  24 H :   -0.410553    0.000223

  Mayer bond orders larger than 0.100000
B(  0-Cu,  1-S ) :   0.7016 B(  0-Cu,  3-S ) :   0.7006 B(  0-Cu,  5-S ) :   0.7016
B(  0-Cu,  7-S ) :   0.7006 B(  1-S ,  2-C ) :   1.1859 B(  2-C ,  6-C ) :   1.2422
B(  2-C , 17-C ) :   1.3175 B(  3-S ,  4-C ) :   1.1875 B(  4-C ,  8-C ) :   1.2396
B(  4-C , 10-C ) :   1.3166 B(  5-S ,  6-C ) :   1.1859 B(  6-C , 18-C ) :   1.3175
B(  7-S ,  8-C ) :   1.1875 B(  8-C ,  9-C ) :   1.3166 B(  9-C , 13-C ) :   1.3613
B(  9-C , 14-H ) :   0.9846 B( 10-C , 11-C ) :   1.3613 B( 10-C , 12-H ) :   0.9846
B( 11-C , 13-C ) :   1.3298 B( 11-C , 15-H ) :   0.9966 B( 13-C , 16-H ) :   0.9966
B( 17-C , 19-C ) :   1.3620 B( 17-C , 20-H ) :   0.9776 B( 18-C , 21-C ) :   1.3620
B( 18-C , 22-H ) :   0.9776 B( 19-C , 21-C ) :   1.3349 B( 19-C , 23-H ) :   0.9924
B( 21-C , 24-H ) :   0.9924

FINAL SINGLE POINT ENERGY     -3686.908417853262

DIPOLE MOMENT
-------------
                                X             Y             Z
Electronic contribution:      0.00000      -0.00000      -0.07354
Nuclear contribution   :     -0.00000      -0.00000      -0.00000
                        -----------------------------------------
Total Dipole Moment    :      0.00000      -0.00000      -0.07354
                        -----------------------------------------
Magnitude (a.u.)       :      0.07354
Magnitude (Debye)      :      0.18693

Rotational constants in cm-1:     0.033396     0.004803     0.004200
Rotational constants in MHz :  1001.199710   144.001921   125.919615

                             ****ORCA TERMINATED NORMALLY****
TOTAL RUN TIME: 0 days 6 hours 15 minutes 50 seconds 303 msec
