                         Program Version 5.0.4 -  RELEASE  -
|  1> ! RIJCOSX nofrozencore ReducedPop printbasis
|  2> ! M06L ano-rcc-dzp autoaux
|  3>
|  4> %maxcore 5000
|  5> %basis
|  6> PCDTrimBas overlap
|  7> PCDTrimAuxJ Coulomb
|  8> PCDTrimAuxJK Coulomb
|  9> PCDTrimAuxC Coulomb
| 10> PCDThresh -1
| 11> end
| 12>
| 13> %basis
| 14> newgto Cu "ano-rcc-tzp" end
| 15> newgto S "ano-rcc-tzp" end
| 16> end
| 17>
| 18> %pal
| 19> nprocs 12
| 20> end
| 21>
| 22> % sym SymThresh 1e-2 end
| 23> * xyz -2 2
| 24> Cu 0.047085526569627584 0.029469613430759954 0.047484358655271605
| 25> S -0.10247953918150651 0.9284600678925875 1.9817253020608172
| 26> C -1.833231996631464 0.9205230120650346 2.49510003092047
| 27> S 2.161109674417189 0.3557415707440648 0.08543195368230828
| 28> C 2.872629340401788 -0.2716393445354846 -1.4503609479516193
| 29> S -2.4286709517610947 -0.3120362765225646 0.08831754866837357
| 30> C -2.7890914125420276 0.35642071270253145 1.602870575548113
| 31> S 0.315970021201178 -1.0067857272341163 -2.2116396721222014
| 32> C 1.9918196497598826 -0.8547993990777842 -2.405607656434581
| 33> C 2.372479322293515 -1.3878548298852988 -3.6419319352818436
| 34> C 4.212326171169492 -0.29178644025388606 -1.9029679672189799
| 35> C 4.591711977829217 -0.8320503270927049 -3.1540443395915707
| 36> H 5.009963119221788 0.12265895664790477 -1.2766545712727213
| 37> C 3.6822417618454844 -1.3907685547852966 -4.049170726340701
| 38> H 1.5630040490510775 -1.7957392884866397 -4.250837782885208
| 39> H 5.646402101951836 -0.8035187815381819 -3.4171120419240415
| 40> H 3.9926973849876055 -1.800904444733205 -5.00578773313395
| 41> C -2.4453558078092974 1.3950085432055306 3.6792777738933933
| 42> C -4.165363833126984 0.269112750723411 1.840956850073287
| 43> C -3.83751907202336 1.3043523156985046 3.915197231234324
| 44> H -1.8361847278884127 1.8572483732561933 4.4637072187861495
| 45> C -4.724845509906383 0.7401360465949839 3.001739965480896
| 46> H -4.754706262401851 -0.1945279068422853 1.0475122245483248
| 47> H -4.218152087994826 1.6963528292264751 4.855210735060345
| 48> H -5.7914778341224515 0.6781128156578717 3.1981117337306832
| 49> *
| 50>
| 51> % eprnmr
| 52> gtensor true
| 53> Nuclei = all H {aiso,adip,aorb,fgrad,rho}
| 54> Nuclei = all Cu {aiso,adip,aorb,fgrad,rho}
| 55> end
| 56>
| 57>                          ****END OF INPUT****

CARTESIAN COORDINATES (ANGSTROEM)
---------------------------------
  Cu    -0.000000    0.000000    0.073077
  S     -1.503975    0.000000    1.593759
  C     -3.127820    0.000000    0.805120
  S      1.503975    0.000000    1.593759
  C      3.127820    0.000000    0.805120
  S     -1.823837    0.000000   -1.636406
  C     -3.177737    0.000000   -0.618144
  S      1.823837    0.000000   -1.636406
  C      3.177737    0.000000   -0.618144
  C      4.346004    0.000000   -1.388302
  C      4.425253    0.000000    1.368809
  C      5.603355    0.000000    0.585496
  H      4.550557    0.000000    2.457143
  C      5.588721    0.000000   -0.807381
  H      4.199698    0.000000   -2.470295
  H      6.557250    0.000000    1.107381
  H      6.503453    0.000000   -1.393195
  C     -4.425253    0.000000    1.368809
  C     -4.346004    0.000000   -1.388302
  C     -5.603355    0.000000    0.585496
  H     -4.550557    0.000000    2.457143
  C     -5.588721    0.000000   -0.807381
  H     -4.199698    0.000000   -2.470295
  H     -6.557250    0.000000    1.107381
  H     -6.503453    0.000000   -1.393195

 Total Charge           Charge          ....   -2
 Multiplicity           Mult            ....    2
 Number of Electrons    NEL             ....  175
 Basis Dimension        Dim             ....  475

ORBITAL ENERGIES
----------------
                 SPIN UP ORBITALS
  NO   OCC          E(Eh)            E(eV)    Irrep
   0   1.0000    -318.184565     -8658.2422    1-A1
   1   1.0000     -88.023123     -2395.2310    1-B1
   2   1.0000     -88.023093     -2395.2301    2-A1
   3   1.0000     -88.005861     -2394.7612    2-B1
   4   1.0000     -88.005839     -2394.7606    3-A1
   5   1.0000     -38.029969     -1034.8481    4-A1
   6   1.0000     -33.533008      -912.4795    5-A1
   7   1.0000     -33.531976      -912.4515    3-B1
   8   1.0000     -33.518696      -912.0901    1-B2
   9   1.0000      -9.838845      -267.7286    4-B1
  10   1.0000      -9.838840      -267.7285    6-A1
  11   1.0000      -9.827176      -267.4111    5-B1
  12   1.0000      -9.827172      -267.4109    7-A1
  13   1.0000      -9.825782      -267.3731    6-B1
  14   1.0000      -9.825782      -267.3731    8-A1
  15   1.0000      -9.823701      -267.3165    7-B1
  16   1.0000      -9.823701      -267.3165    9-A1
  17   1.0000      -9.823157      -267.3017    8-B1
  18   1.0000      -9.823157      -267.3017   10-A1
  19   1.0000      -9.811064      -266.9726    9-B1
  20   1.0000      -9.811063      -266.9726   11-A1
  21   1.0000      -7.590720      -206.5540   10-B1
  22   1.0000      -7.590712      -206.5538   12-A1
  23   1.0000      -7.576036      -206.1544   11-B1
  24   1.0000      -7.576031      -206.1543   13-A1
  25   1.0000      -5.514605      -150.0600   14-A1
  26   1.0000      -5.514604      -150.0600   12-B1
  27   1.0000      -5.508412      -149.8915   13-B1
  28   1.0000      -5.508412      -149.8915   15-A1
  29   1.0000      -5.506495      -149.8393    1-A2
  30   1.0000      -5.506495      -149.8393    2-B2
  31   1.0000      -5.498786      -149.6296   14-B1
  32   1.0000      -5.498786      -149.6296   16-A1
  33   1.0000      -5.494099      -149.5020   15-B1
  34   1.0000      -5.494099      -149.5020   17-A1
  35   1.0000      -5.492213      -149.4507    2-A2
  36   1.0000      -5.492213      -149.4507    3-B2
  37   1.0000      -4.027038      -109.5813   18-A1
  38   1.0000      -2.548631       -69.3518   19-A1
  39   1.0000      -2.546496       -69.2937   16-B1
  40   1.0000      -2.519692       -68.5643    4-B2
  41   1.0000      -0.589859       -16.0509   20-A1
  42   1.0000      -0.589736       -16.0475   17-B1
  43   1.0000      -0.504888       -13.7387   21-A1
  44   1.0000      -0.503796       -13.7090   18-B1
  45   1.0000      -0.490373       -13.3437   22-A1
  46   1.0000      -0.489979       -13.3330   19-B1
  47   1.0000      -0.412504       -11.2248   23-A1
  48   1.0000      -0.406586       -11.0638   20-B1
  49   1.0000      -0.385747       -10.4967   24-A1
  50   1.0000      -0.379000       -10.3131   21-B1
  51   1.0000      -0.324611        -8.8331   25-A1
  52   1.0000      -0.320083        -8.7099   22-B1
  53   1.0000      -0.297125        -8.0852   26-A1
  54   1.0000      -0.294225        -8.0063   23-B1
  55   1.0000      -0.231240        -6.2924   27-A1
  56   1.0000      -0.225895        -6.1469   24-B1
  57   1.0000      -0.188594        -5.1319   28-A1
  58   1.0000      -0.187717        -5.1080   25-B1
  59   1.0000      -0.178259        -4.8507   29-A1
  60   1.0000      -0.174289        -4.7426   26-B1
  61   1.0000      -0.153279        -4.1709   30-A1
  62   1.0000      -0.144404        -3.9294   27-B1
  63   1.0000      -0.125889        -3.4256   31-A1
  64   1.0000      -0.116956        -3.1825    5-B2
  65   1.0000      -0.116830        -3.1791    3-A2
  66   1.0000      -0.110066        -2.9951   28-B1
  67   1.0000      -0.091516        -2.4903   32-A1
  68   1.0000      -0.077309        -2.1037   29-B1
  69   1.0000      -0.061933        -1.6853   33-A1
  70   1.0000      -0.054172        -1.4741   30-B1
  71   1.0000      -0.039250        -1.0680    4-A2
  72   1.0000      -0.038726        -1.0538    6-B2
  73   1.0000      -0.034573        -0.9408   34-A1
  74   1.0000      -0.027972        -0.7612   31-B1
  75   1.0000      -0.027676        -0.7531    7-B2
  76   1.0000      -0.019424        -0.5286    5-A2
  77   1.0000      -0.006172        -0.1680    8-B2
  78   1.0000      -0.003195        -0.0869   35-A1
  79   1.0000      -0.002493        -0.0678    6-A2
  80   1.0000       0.017575         0.4782   36-A1
  81   1.0000       0.023441         0.6379   32-B1
  82   1.0000       0.038270         1.0414   37-A1
  83   1.0000       0.048571         1.3217    9-B2
  84   1.0000       0.052610         1.4316    7-A2
  85   1.0000       0.067548         1.8381   10-B2
  86   1.0000       0.089145         2.4258    8-A2
  87   1.0000       0.106782         2.9057   33-B1
  88   0.0000       0.181339         4.9345   38-A1
  89   0.0000       0.181458         4.9377   34-B1
  90   0.0000       0.196647         5.3510   35-B1
  91   0.0000       0.196718         5.3530   39-A1
  92   0.0000       0.199141         5.4189   11-B2

                 SPIN DOWN ORBITALS
  NO   OCC          E(Eh)            E(eV)    Irrep
   0   1.0000    -318.184383     -8658.2372    1-A1
   1   1.0000     -88.022101     -2395.2031    1-B1
   2   1.0000     -88.022071     -2395.2023    2-A1
   3   1.0000     -88.004689     -2394.7293    2-B1
   4   1.0000     -88.004667     -2394.7287    3-A1
   5   1.0000     -38.014946     -1034.4393    4-A1
   6   1.0000     -33.518655      -912.0890    5-A1
   7   1.0000     -33.517630      -912.0611    3-B1
   8   1.0000     -33.514574      -911.9779    1-B2
   9   1.0000      -9.838957      -267.7316    4-B1
  10   1.0000      -9.838952      -267.7315    6-A1
  11   1.0000      -9.827287      -267.4141    5-B1
  12   1.0000      -9.827283      -267.4140    7-A1
  13   1.0000      -9.825713      -267.3712    6-B1
  14   1.0000      -9.825712      -267.3712    8-A1
  15   1.0000      -9.823688      -267.3161    7-B1
  16   1.0000      -9.823688      -267.3161    9-A1
  17   1.0000      -9.823111      -267.3004    8-B1
  18   1.0000      -9.823111      -267.3004   10-A1
  19   1.0000      -9.810966      -266.9700    9-B1
  20   1.0000      -9.810965      -266.9699   11-A1
  21   1.0000      -7.590024      -206.5351   10-B1
  22   1.0000      -7.590017      -206.5349   12-A1
  23   1.0000      -7.575222      -206.1323   11-B1
  24   1.0000      -7.575217      -206.1321   13-A1
  25   1.0000      -5.513723      -150.0360   14-A1
  26   1.0000      -5.513723      -150.0360   12-B1
  27   1.0000      -5.506303      -149.8341   13-B1
  28   1.0000      -5.506303      -149.8341   15-A1
  29   1.0000      -5.505709      -149.8180    1-A2
  30   1.0000      -5.505709      -149.8180    2-B2
  31   1.0000      -5.497765      -149.6018   14-B1
  32   1.0000      -5.497764      -149.6018   16-A1
  33   1.0000      -5.491584      -149.4336   15-B1
  34   1.0000      -5.491584      -149.4336   17-A1
  35   1.0000      -5.491322      -149.4265    2-A2
  36   1.0000      -5.491322      -149.4265    3-B2
  37   1.0000      -3.995600      -108.7258   18-A1
  38   1.0000      -2.509419       -68.2848   19-A1
  39   1.0000      -2.508579       -68.2619    4-B2
  40   1.0000      -2.507224       -68.2250   16-B1
  41   1.0000      -0.589423       -16.0390   20-A1
  42   1.0000      -0.589311       -16.0360   17-B1
  43   1.0000      -0.503502       -13.7010   21-A1
  44   1.0000      -0.502478       -13.6731   18-B1
  45   1.0000      -0.489199       -13.3118   22-A1
  46   1.0000      -0.488861       -13.3026   19-B1
  47   1.0000      -0.408278       -11.1098   23-A1
  48   1.0000      -0.402375       -10.9492   20-B1
  49   1.0000      -0.382598       -10.4110   24-A1
  50   1.0000      -0.375742       -10.2245   21-B1
  51   1.0000      -0.323537        -8.8039   25-A1
  52   1.0000      -0.318423        -8.6647   22-B1
  53   1.0000      -0.295325        -8.0362   26-A1
  54   1.0000      -0.292027        -7.9465   23-B1
  55   1.0000      -0.230481        -6.2717   27-A1
  56   1.0000      -0.225019        -6.1231   24-B1
  57   1.0000      -0.187576        -5.1042   28-A1
  58   1.0000      -0.186772        -5.0823   25-B1
  59   1.0000      -0.177539        -4.8311   29-A1
  60   1.0000      -0.173259        -4.7146   26-B1
  61   1.0000      -0.152387        -4.1467   30-A1
  62   1.0000      -0.142664        -3.8821   27-B1
  63   1.0000      -0.124686        -3.3929   31-A1
  64   1.0000      -0.116766        -3.1774    5-B2
  65   1.0000      -0.116618        -3.1733    3-A2
  66   1.0000      -0.109037        -2.9670   28-B1
  67   1.0000      -0.090077        -2.4511   32-A1
  68   1.0000      -0.064700        -1.7606   29-B1
  69   1.0000      -0.060321        -1.6414   33-A1
  70   1.0000      -0.048443        -1.3182   30-B1
  71   1.0000      -0.037259        -1.0139    6-B2
  72   1.0000      -0.036963        -1.0058    4-A2
  73   1.0000      -0.027400        -0.7456   34-A1
  74   1.0000      -0.024087        -0.6554    7-B2
  75   1.0000      -0.018382        -0.5002    5-A2
  76   1.0000      -0.005511        -0.1500   31-B1
  77   1.0000       0.001266         0.0344    8-B2
  78   1.0000       0.007331         0.1995   35-A1
  79   1.0000       0.008162         0.2221    6-A2
  80   1.0000       0.031542         0.8583   36-A1
  81   1.0000       0.032586         0.8867   32-B1
  82   1.0000       0.046743         1.2719   37-A1
  83   1.0000       0.054264         1.4766    9-B2
  84   1.0000       0.056036         1.5248    7-A2
  85   1.0000       0.069881         1.9016   10-B2
  86   1.0000       0.093285         2.5384    8-A2
  87   0.0000       0.137507         3.7417   33-B1
  88   0.0000       0.182800         4.9742   38-A1
  89   0.0000       0.182913         4.9773   34-B1
  90   0.0000       0.199029         5.4159   35-B1
  91   0.0000       0.199135         5.4187   39-A1

MULLIKEN ATOMIC CHARGES AND SPIN POPULATIONS
--------------------------------------------
   0 Cu:    0.141548    0.354354
   1 S :   -0.400201    0.162807
   2 C :   -0.071805   -0.007096
   3 S :   -0.400201    0.162807
   4 C :   -0.071805   -0.007096
   5 S :   -0.420828    0.171760
   6 C :    0.079537   -0.007533
   7 S :   -0.420828    0.171760
   8 C :    0.079537   -0.007533
   9 C :   -0.056970   -0.000828
  10 C :   -0.103106   -0.000441
  11 C :   -0.139215   -0.002102
  12 H :    0.053093    0.000746
  13 C :   -0.135582    0.000325
  14 H :    0.063538    0.002743
  15 H :    0.039476    0.001524
  16 H :    0.021288    0.000917
  17 C :   -0.103106   -0.000441
  18 C :   -0.056970   -0.000828
  19 C :   -0.139215   -0.002102
  20 H :    0.053093    0.000746
  21 C :   -0.135582    0.000325
  22 H :    0.063538    0.002743
  23 H :    0.039476    0.001524
  24 H :    0.021288    0.000917
Sum of atomic charges         :   -2.0000000

LOEWDIN ATOMIC CHARGES AND SPIN POPULATIONS
-------------------------------------------
   0 Cu:   -0.892292    0.423826
   1 S :    0.019702    0.117609
   2 C :    0.001802    0.006388
   3 S :    0.019702    0.117609
   4 C :    0.001802    0.006388
   5 S :    0.006005    0.136652
   6 C :   -0.062853    0.003445
   7 S :    0.006005    0.136652
   8 C :   -0.062853    0.003445
   9 C :    0.294125    0.006449
  10 C :    0.308955    0.003283
  11 C :    0.309886   -0.000702
  12 H :   -0.426496    0.003230
  13 C :    0.311584    0.000704
  14 H :   -0.478066    0.010529
  15 H :   -0.433472    0.000314
  16 H :   -0.405026    0.000185
  17 C :    0.308955    0.003283
  18 C :    0.294125    0.006449
  19 C :    0.309886   -0.000702
  20 H :   -0.426496    0.003230
  21 C :    0.311584    0.000704
  22 H :   -0.478066    0.010529
  23 H :   -0.433472    0.000314
  24 H :   -0.405026    0.000185

  Mayer bond orders larger than 0.100000
B(  0-Cu,  1-S ) :   0.8573 B(  0-Cu,  3-S ) :   0.8573 B(  0-Cu,  5-S ) :   0.5846
B(  0-Cu,  7-S ) :   0.5846 B(  1-S ,  2-C ) :   1.1443 B(  2-C ,  6-C ) :   1.2502
B(  2-C , 17-C ) :   1.3321 B(  3-S ,  4-C ) :   1.1443 B(  4-C ,  8-C ) :   1.2502
B(  4-C , 10-C ) :   1.3321 B(  5-S ,  6-C ) :   1.2132 B(  6-C , 18-C ) :   1.2923
B(  7-S ,  8-C ) :   1.2132 B(  8-C ,  9-C ) :   1.2923 B(  9-C , 13-C ) :   1.3705
B(  9-C , 14-H ) :   0.9634 B( 10-C , 11-C ) :   1.3586 B( 10-C , 12-H ) :   0.9790
B( 11-C , 13-C ) :   1.3342 B( 11-C , 15-H ) :   0.9850 B( 13-C , 16-H ) :   0.9931
B( 17-C , 19-C ) :   1.3586 B( 17-C , 20-H ) :   0.9790 B( 18-C , 21-C ) :   1.3705
B( 18-C , 22-H ) :   0.9634 B( 19-C , 21-C ) :   1.3342 B( 19-C , 23-H ) :   0.9850
B( 21-C , 24-H ) :   0.9931

FINAL SINGLE POINT ENERGY     -3686.881280326739

DIPOLE MOMENT
-------------
                                X             Y             Z
Electronic contribution:     -0.00000       0.00000       0.98080
Nuclear contribution   :      0.00000       0.00000      -0.93769
                        -----------------------------------------
Total Dipole Moment    :     -0.00000       0.00000       0.04311
                        -----------------------------------------
Magnitude (a.u.)       :      0.04311
Magnitude (Debye)      :      0.10959

Rotational constants in cm-1:     0.033334     0.004798     0.004194
Rotational constants in MHz :   999.322153   143.825537   125.730075

                             ****ORCA TERMINATED NORMALLY****
TOTAL RUN TIME: 0 days 5 hours 42 minutes 14 seconds 967 msec
