                         Program Version 5.0.4 -  RELEASE  -
|  1> ! RIJCOSX nofrozencore ReducedPop printbasis
|  2> ! M06L ano-rcc-dzp autoaux
|  3>
|  4> %maxcore 5000
|  5> %basis
|  6> PCDTrimBas overlap
|  7> PCDTrimAuxJ Coulomb
|  8> PCDTrimAuxJK Coulomb
|  9> PCDTrimAuxC Coulomb
| 10> PCDThresh -1
| 11> end
| 12>
| 13> %basis
| 14> newgto Cu "ano-rcc-tzp" end
| 15> newgto S "ano-rcc-tzp" end
| 16> end
| 17>
| 18> %pal
| 19> nprocs 12
| 20> end
| 21>
| 22> % sym SymThresh 1e-2 end
| 23> * xyz -2 2
| 24> Cu -1.0977820850144072e-07 -1.351568067238436e-06 4.015127701077174e-07
| 25> S 1.5418177595192382 -0.6374263904729245 -1.6089081374154761
| 26> C 1.6868396309252764 -2.3640731486791156 -1.4178740653891975
| 27> S 0.15809533985912708 2.223447060902497 -0.6351342948281681
| 28> C -0.937946759969794 3.062718115474156 0.42928121265506386
| 29> S -0.15809816705127128 -2.2234459512340603 0.6351372571955557
| 30> C 0.937974455958917 -3.0627722204370467 -0.42930135180045526
| 31> S -1.5418196443140009 0.6374271302518825 1.6089101123270677
| 32> C -1.6868320959842547 2.3640402061261407 1.4178723296278979
| 33> C -2.5411590663967965 3.108421719527781 2.2290191307185583
| 34> C -1.1108673704843794 4.442845964895307 0.3409099639855295
| 35> C -1.9616673511198712 5.137864190185711 1.1582168249752218
| 36> H -0.41525871476242787 5.074531123893884 -0.5738002665441403
| 37> C -2.682863330403808 4.464844288647632 2.11029162393713
| 38> H -3.227595970571021 2.450578801693077 3.1387528492952796
| 39> H -2.0805535945428355 6.461717804352041 1.0204308008888843
| 40> H -3.521176763999136 5.118993389892606 2.9219033927613656
| 41> C 2.54073449074302 -3.108824093839185 -2.228457368822607
| 42> C 1.111549588100169 -4.442270664773175 -0.3417979808176792
| 43> C 2.6822751259160627 -4.46442374612394 -2.1097142579644896
| 44> H 3.2323666842292464 -2.446000318656234 -3.1450768029061598
| 45> C 1.9615574813169347 -5.1367625226794855 -1.1583191447295742
| 46> H 0.4079509188025968 -5.081180654339788 0.5834125890552961
| 47> H 3.527611764470246 -5.123969527692415 -2.928142711436841
| 48> H 2.0816313473270687 -6.473764579711744 -1.019172367986849
| 49> *
| 50>
| 51> % eprnmr
| 52> gtensor true
| 53> Nuclei = all H {aiso,adip,aorb,fgrad,rho}
| 54> Nuclei = all Cu {aiso,adip,aorb,fgrad,rho}
| 55> end
| 56>
| 57>                          ****END OF INPUT****

CARTESIAN COORDINATES (ANGSTROEM)
---------------------------------
  Cu     0.000000    0.000000   -0.000001
  S     -1.615620    0.000000   -1.661889
  C     -0.711733    0.000000   -3.152474
  S     -1.615619    0.000000    1.661891
  C     -0.711739    0.000000    3.152425
  S      1.615620    0.000000   -1.661889
  C      0.711733    0.000000   -3.152474
  S      1.615619    0.000000    1.661891
  C      0.711739    0.000000    3.152425
  C      1.359354    0.000000    4.386441
  C     -1.359354    0.000000    4.386441
  C     -0.685479    0.000000    5.578235
  H     -2.672892    0.000000    4.372546
  C      0.685479    0.000000    5.578235
  H      2.672892    0.000000    4.372546
  H     -1.368749    0.000000    6.727448
  H      1.368749    0.000000    6.727448
  C     -1.358320    0.000000   -4.386469
  C      1.358320    0.000000   -4.386469
  C     -0.684950    0.000000   -5.577365
  H     -2.684359    0.000000   -4.372428
  C      0.684950    0.000000   -5.577365
  H      2.684359    0.000000   -4.372428
  H     -1.374498    0.000000   -6.737068
  H      1.374498    0.000000   -6.737068

 Total Charge           Charge          ....   -2
 Multiplicity           Mult            ....    2
 Number of Electrons    NEL             ....  175
 Basis Dimension        Dim             ....  475

ORBITAL ENERGIES
----------------
                 SPIN UP ORBITALS
  NO   OCC          E(Eh)            E(eV)    Irrep
   0   1.0000    -318.188678     -8658.3541    1-A1
   1   1.0000     -88.022730     -2395.2203    1-B1
   2   1.0000     -88.022723     -2395.2201    2-A1
   3   1.0000     -88.022581     -2395.2162    2-B1
   4   1.0000     -88.022566     -2395.2158    3-A1
   5   1.0000     -38.033940     -1034.9561    4-A1
   6   1.0000     -33.537090      -912.5906    3-B1
   7   1.0000     -33.536237      -912.5674    5-A1
   8   1.0000     -33.522422      -912.1915    1-B2
   9   1.0000      -9.856227      -268.2016    6-A1
  10   1.0000      -9.855706      -268.1874    4-B1
  11   1.0000      -9.855039      -268.1692    7-A1
  12   1.0000      -9.854522      -268.1552    5-B1
  13   1.0000      -9.845973      -267.9225    6-B1
  14   1.0000      -9.845970      -267.9225    8-A1
  15   1.0000      -9.844828      -267.8914    7-B1
  16   1.0000      -9.844827      -267.8914    9-A1
  17   1.0000      -9.843581      -267.8575   10-A1
  18   1.0000      -9.843255      -267.8486    8-B1
  19   1.0000      -9.843219      -267.8476   11-A1
  20   1.0000      -9.842895      -267.8388    9-B1
  21   1.0000      -7.591274      -206.5691   10-B1
  22   1.0000      -7.591264      -206.5688   12-A1
  23   1.0000      -7.591133      -206.5652   11-B1
  24   1.0000      -7.591123      -206.5650   13-A1
  25   1.0000      -5.514645      -150.0611   12-B1
  26   1.0000      -5.514644      -150.0611   14-A1
  27   1.0000      -5.514493      -150.0570   13-B1
  28   1.0000      -5.514492      -150.0570   15-A1
  29   1.0000      -5.509134      -149.9111   14-B1
  30   1.0000      -5.509133      -149.9111   16-A1
  31   1.0000      -5.508999      -149.9075   15-B1
  32   1.0000      -5.508999      -149.9075   17-A1
  33   1.0000      -5.507259      -149.8601    1-A2
  34   1.0000      -5.507259      -149.8601    2-B2
  35   1.0000      -5.507121      -149.8564    2-A2
  36   1.0000      -5.507121      -149.8564    3-B2
  37   1.0000      -4.031541      -109.7038   18-A1
  38   1.0000      -2.553017       -69.4711   16-B1
  39   1.0000      -2.551440       -69.4282   19-A1
  40   1.0000      -2.523976       -68.6809    4-B2
  41   1.0000      -0.606842       -16.5130   20-A1
  42   1.0000      -0.606084       -16.4924   21-A1
  43   1.0000      -0.514196       -13.9920   22-A1
  44   1.0000      -0.513007       -13.9596   23-A1
  45   1.0000      -0.494400       -13.4533   17-B1
  46   1.0000      -0.494070       -13.4443   18-B1
  47   1.0000      -0.415000       -11.2927   19-B1
  48   1.0000      -0.412342       -11.2204   20-B1
  49   1.0000      -0.392327       -10.6758   24-A1
  50   1.0000      -0.384994       -10.4762   25-A1
  51   1.0000      -0.313695        -8.5361   26-A1
  52   1.0000      -0.311190        -8.4679   27-A1
  53   1.0000      -0.294759        -8.0208   21-B1
  54   1.0000      -0.290559        -7.9065   22-B1
  55   1.0000      -0.216949        -5.9035   28-A1
  56   1.0000      -0.210710        -5.7337   29-A1
  57   1.0000      -0.203758        -5.5445   30-A1
  58   1.0000      -0.203096        -5.5265   31-A1
  59   1.0000      -0.145676        -3.9641   23-B1
  60   1.0000      -0.141879        -3.8607   24-B1
  61   1.0000      -0.135514        -3.6875   25-B1
  62   1.0000      -0.133489        -3.6324   32-A1
  63   1.0000      -0.132461        -3.6045    5-B2
  64   1.0000      -0.132397        -3.6027   26-B1
  65   1.0000      -0.131866        -3.5883    6-B2
  66   1.0000      -0.109692        -2.9849   33-A1
  67   1.0000      -0.078982        -2.1492   34-A1
  68   1.0000      -0.076044        -2.0693   27-B1
  69   1.0000      -0.072638        -1.9766   28-B1
  70   1.0000      -0.062396        -1.6979   35-A1
  71   1.0000      -0.050162        -1.3650    7-B2
  72   1.0000      -0.048945        -1.3319    8-B2
  73   1.0000      -0.038930        -1.0593   29-B1
  74   1.0000      -0.037130        -1.0104   36-A1
  75   1.0000      -0.035844        -0.9754    3-A2
  76   1.0000      -0.030240        -0.8229    4-A2
  77   1.0000      -0.011784        -0.3207    5-A2
  78   1.0000      -0.008341        -0.2270   37-A1
  79   1.0000      -0.006735        -0.1833    9-B2
  80   1.0000       0.010546         0.2870   38-A1
  81   1.0000       0.010871         0.2958   39-A1
  82   1.0000       0.028162         0.7663   30-B1
  83   1.0000       0.041758         1.1363    6-A2
  84   1.0000       0.044180         1.2022    7-A2
  85   1.0000       0.053970         1.4686   10-B2
  86   1.0000       0.079378         2.1600   11-B2
  87   1.0000       0.097889         2.6637   31-B1
  88   0.0000       0.157768         4.2931   40-A1
  89   0.0000       0.159648         4.3442   41-A1
  90   0.0000       0.186841         5.0842   32-B1
  91   0.0000       0.187449         5.1007   33-B1
  92   0.0000       0.196413         5.3447   12-B2

                 SPIN DOWN ORBITALS
  NO   OCC          E(Eh)            E(eV)    Irrep
   0   1.0000    -318.188504     -8658.3494    1-A1
   1   1.0000     -88.021659     -2395.1911    1-B1
   2   1.0000     -88.021652     -2395.1909    2-A1
   3   1.0000     -88.021509     -2395.1870    2-B1
   4   1.0000     -88.021494     -2395.1866    3-A1
   5   1.0000     -38.018114     -1034.5255    4-A1
   6   1.0000     -33.521970      -912.1792    3-B1
   7   1.0000     -33.521149      -912.1568    5-A1
   8   1.0000     -33.518111      -912.0742    1-B2
   9   1.0000      -9.856201      -268.2009    6-A1
  10   1.0000      -9.855679      -268.1867    4-B1
  11   1.0000      -9.855013      -268.1685    7-A1
  12   1.0000      -9.854497      -268.1545    5-B1
  13   1.0000      -9.845920      -267.9211    6-B1
  14   1.0000      -9.845918      -267.9210    8-A1
  15   1.0000      -9.844777      -267.8900    9-A1
  16   1.0000      -9.844776      -267.8900    7-B1
  17   1.0000      -9.843700      -267.8607   10-A1
  18   1.0000      -9.843374      -267.8518    8-B1
  19   1.0000      -9.843335      -267.8508   11-A1
  20   1.0000      -9.843012      -267.8420    9-B1
  21   1.0000      -7.590537      -206.5490   10-B1
  22   1.0000      -7.590527      -206.5488   12-A1
  23   1.0000      -7.590395      -206.5452   11-B1
  24   1.0000      -7.590385      -206.5449   13-A1
  25   1.0000      -5.513729      -150.0362   12-B1
  26   1.0000      -5.513728      -150.0362   14-A1
  27   1.0000      -5.513575      -150.0320   13-B1
  28   1.0000      -5.513575      -150.0320   15-A1
  29   1.0000      -5.506858      -149.8492   14-B1
  30   1.0000      -5.506858      -149.8492   16-A1
  31   1.0000      -5.506723      -149.8455   15-B1
  32   1.0000      -5.506723      -149.8455   17-A1
  33   1.0000      -5.506444      -149.8379    1-A2
  34   1.0000      -5.506443      -149.8379    2-B2
  35   1.0000      -5.506304      -149.8342    2-A2
  36   1.0000      -5.506304      -149.8342    3-B2
  37   1.0000      -3.997958      -108.7900   18-A1
  38   1.0000      -2.512306       -68.3633    4-B2
  39   1.0000      -2.511134       -68.3314   16-B1
  40   1.0000      -2.509533       -68.2879   19-A1
  41   1.0000      -0.606550       -16.5051   20-A1
  42   1.0000      -0.605789       -16.4844   21-A1
  43   1.0000      -0.512800       -13.9540   22-A1
  44   1.0000      -0.511680       -13.9235   23-A1
  45   1.0000      -0.493274       -13.4227   17-B1
  46   1.0000      -0.492967       -13.4143   18-B1
  47   1.0000      -0.410975       -11.1832   19-B1
  48   1.0000      -0.408201       -11.1077   20-B1
  49   1.0000      -0.388830       -10.5806   24-A1
  50   1.0000      -0.381462       -10.3801   25-A1
  51   1.0000      -0.312649        -8.5076   26-A1
  52   1.0000      -0.309873        -8.4321   27-A1
  53   1.0000      -0.292865        -7.9693   21-B1
  54   1.0000      -0.288126        -7.8403   22-B1
  55   1.0000      -0.216264        -5.8848   28-A1
  56   1.0000      -0.210023        -5.7150   29-A1
  57   1.0000      -0.202976        -5.5232   30-A1
  58   1.0000      -0.202326        -5.5056   31-A1
  59   1.0000      -0.145089        -3.9481   23-B1
  60   1.0000      -0.141201        -3.8423   24-B1
  61   1.0000      -0.134846        -3.6693   25-B1
  62   1.0000      -0.132327        -3.6008    5-B2
  63   1.0000      -0.132090        -3.5943   32-A1
  64   1.0000      -0.131727        -3.5845    6-B2
  65   1.0000      -0.130341        -3.5468   26-B1
  66   1.0000      -0.108513        -2.9528   33-A1
  67   1.0000      -0.077763        -2.1160   34-A1
  68   1.0000      -0.074810        -2.0357   27-B1
  69   1.0000      -0.061128        -1.6634   35-A1
  70   1.0000      -0.059460        -1.6180   28-B1
  71   1.0000      -0.048419        -1.3176    7-B2
  72   1.0000      -0.047976        -1.3055    8-B2
  73   1.0000      -0.033312        -0.9065    3-A2
  74   1.0000      -0.030365        -0.8263   36-A1
  75   1.0000      -0.029500        -0.8027    4-A2
  76   1.0000      -0.009561        -0.2602   29-B1
  77   1.0000      -0.001705        -0.0464    5-A2
  78   1.0000       0.002381         0.0648   37-A1
  79   1.0000       0.005655         0.1539    9-B2
  80   1.0000       0.017501         0.4762   38-A1
  81   1.0000       0.026762         0.7282   39-A1
  82   1.0000       0.036482         0.9927   30-B1
  83   1.0000       0.044707         1.2165    6-A2
  84   1.0000       0.049961         1.3595    7-A2
  85   1.0000       0.055879         1.5205   10-B2
  86   1.0000       0.083648         2.2762   11-B2
  87   0.0000       0.130757         3.5581   31-B1
  88   0.0000       0.158543         4.3142   40-A1
  89   0.0000       0.160457         4.3663   41-A1
  90   0.0000       0.188823         5.1381   32-B1
  91   0.0000       0.189485         5.1562   33-B1

MULLIKEN ATOMIC CHARGES AND SPIN POPULATIONS
--------------------------------------------
   0 Cu:    0.139770    0.374098
   1 S :   -0.399575    0.162519
   2 C :    0.047254   -0.007468
   3 S :   -0.400518    0.162759
   4 C :    0.046337   -0.007493
   5 S :   -0.399575    0.162519
   6 C :    0.047254   -0.007468
   7 S :   -0.400518    0.162759
   8 C :    0.046337   -0.007493
   9 C :    0.000141   -0.000650
  10 C :    0.000141   -0.000650
  11 C :   -0.021815   -0.001098
  12 H :   -0.061971    0.001340
  13 C :   -0.021815   -0.001098
  14 H :   -0.061971    0.001340
  15 H :   -0.096887    0.001702
  16 H :   -0.096887    0.001702
  17 C :    0.001691   -0.000618
  18 C :    0.001691   -0.000618
  19 C :   -0.019774   -0.001092
  20 H :   -0.065289    0.001325
  21 C :   -0.019774   -0.001092
  22 H :   -0.065289    0.001325
  23 H :   -0.099480    0.001725
  24 H :   -0.099480    0.001725
Sum of atomic charges         :   -2.0000000

LOEWDIN ATOMIC CHARGES AND SPIN POPULATIONS
-------------------------------------------
   0 Cu:   -0.892569    0.440458
   1 S :    0.000158    0.124131
   2 C :   -0.074600    0.005013
   3 S :    0.000752    0.124271
   4 C :   -0.073127    0.005019
   5 S :    0.000158    0.124131
   6 C :   -0.074600    0.005013
   7 S :    0.000752    0.124271
   8 C :   -0.073127    0.005019
   9 C :    0.179147    0.003560
  10 C :    0.179147    0.003560
  11 C :    0.144515   -0.000114
  12 H :   -0.277810    0.006536
  13 C :    0.144515   -0.000114
  14 H :   -0.277810    0.006536
  15 H :   -0.250072    0.000676
  16 H :   -0.250072    0.000676
  17 C :    0.174316    0.003540
  18 C :    0.174316    0.003540
  19 C :    0.138497   -0.000106
  20 H :   -0.270967    0.006538
  21 C :    0.138497   -0.000106
  22 H :   -0.270967    0.006538
  23 H :   -0.244524    0.000707
  24 H :   -0.244524    0.000707

  Mayer bond orders larger than 0.100000
B(  0-Cu,  1-S ) :   0.7015 B(  0-Cu,  3-S ) :   0.7018 B(  0-Cu,  5-S ) :   0.7015
B(  0-Cu,  7-S ) :   0.7018 B(  1-S ,  2-C ) :   1.1809 B(  2-C ,  6-C ) :   1.2353
B(  2-C , 17-C ) :   1.3156 B(  3-S ,  4-C ) :   1.1809 B(  4-C ,  8-C ) :   1.2360
B(  4-C , 10-C ) :   1.3152 B(  5-S ,  6-C ) :   1.1809 B(  6-C , 18-C ) :   1.3156
B(  7-S ,  8-C ) :   1.1809 B(  8-C ,  9-C ) :   1.3152 B(  9-C , 13-C ) :   1.3598
B(  9-C , 14-H ) :   0.9878 B( 10-C , 11-C ) :   1.3598 B( 10-C , 12-H ) :   0.9878
B( 11-C , 13-C ) :   1.3353 B( 11-C , 15-H ) :   0.9896 B( 13-C , 16-H ) :   0.9896
B( 17-C , 19-C ) :   1.3609 B( 17-C , 20-H ) :   0.9860 B( 18-C , 21-C ) :   1.3609
B( 18-C , 22-H ) :   0.9860 B( 19-C , 21-C ) :   1.3362 B( 19-C , 23-H ) :   0.9872
B( 21-C , 24-H ) :   0.9872

FINAL SINGLE POINT ENERGY     -3686.731872053977

DIPOLE MOMENT
-------------
                                X             Y             Z
Electronic contribution:     -0.00000       0.00000       0.04425
Nuclear contribution   :     -0.00000       0.00000      -0.01782
                        -----------------------------------------
Total Dipole Moment    :     -0.00000       0.00000       0.02643
                        -----------------------------------------
Magnitude (a.u.)       :      0.02643
Magnitude (Debye)      :      0.06717

Rotational constants in cm-1:     0.033259     0.004802     0.004196
Rotational constants in MHz :   997.085901   143.957184   125.795144

                             ****ORCA TERMINATED NORMALLY****
TOTAL RUN TIME: 0 days 6 hours 18 minutes 44 seconds 210 msec
