                         Program Version 5.0.4 -  RELEASE  -
|  1> ! RIJCOSX nofrozencore ReducedPop printbasis
|  2> ! M06L ano-rcc-dzp autoaux
|  3>
|  4> %maxcore 5000
|  5> %basis
|  6> PCDTrimBas overlap
|  7> PCDTrimAuxJ Coulomb
|  8> PCDTrimAuxJK Coulomb
|  9> PCDTrimAuxC Coulomb
| 10> PCDThresh -1
| 11> end
| 12>
| 13> %basis
| 14> newgto Cu "ano-rcc-tzp" end
| 15> newgto S "ano-rcc-tzp" end
| 16> end
| 17>
| 18> %pal
| 19> nprocs 12
| 20> end
| 21>
| 22> % sym SymThresh 1e-2 end
| 23> * xyz -2 2
| 24> Cu -0.04606396893522779 -0.16044809938301252 -0.05014989183750361
| 25> S -0.047613160832882126 -1.922010551564386 0.7390855550040649
| 26> C -0.6492615976568932 -3.1830433972037135 -0.2918090833402251
| 27> S 0.990007555533042 0.9375750318544612 2.20859768996429
| 28> C 1.0228554669735768 2.6108160005548817 1.5423128627661369
| 29> S -0.7819229196082286 -0.9676813642463452 -1.6420733952840463
| 30> C -1.034076349968899 -2.6826396242350055 -1.5397842047700283
| 31> S -0.06051051043842033 2.3025930727273343 -1.1978164303951477
| 32> C 0.6238943184086322 3.1284228737190594 0.24899728890454323
| 33> C 0.7882746890441557 4.519684502020976 0.05924222066016546
| 34> C 1.5292950297991048 3.556296564517625 2.4623136873846696
| 35> C 1.6731285551660622 4.914834283275545 2.2326951289937185
| 36> H 1.8252143563758976 3.1581147279581097 3.428020032813459
| 37> C 1.2906510115360148 5.410870542488783 0.9928979105452889
| 38> H 0.48706268101575434 4.899386614991679 -0.9122062421597013
| 39> H 2.0747182310772607 5.559920137475143 3.009355561505324
| 40> H 1.376946438803282 6.465829239663133 0.7470997031027623
| 41> C -0.7711612443697881 -4.5413327961509795 -0.00401514066639602
| 42> C -1.5459479246645855 -3.534628597507162 -2.516325759620724
| 43> C -1.2833521068102205 -5.392808349135826 -0.9816364010068591
| 44> H -0.4695698499602662 -4.9186739531434425 0.9673782055259225
| 45> C -1.66762642673295 -4.893284945321475 -2.227778883633003
| 46> H -1.8418559717728558 -3.1374384070429944 -3.4815555247360606
| 47> H -1.384940913094606 -6.453872614722419 -0.773729154182957
| 48> H -2.064798866632841 -5.570311735385973 -2.9783157347841835
| 49> *
| 50>
| 51> % eprnmr
| 52> gtensor true
| 53> Nuclei = all H {aiso,adip,aorb,fgrad,rho}
| 54> Nuclei = all Cu {aiso,adip,aorb,fgrad,rho}
| 55> end
| 56>
| 57>                          ****END OF INPUT****

CARTESIAN COORDINATES (ANGSTROEM)
---------------------------------
  Cu    -0.000000    0.000000   -0.174300
  S      1.334154    0.000000   -1.569541
  C      0.699272    0.000000   -3.185695
  S      1.908567    0.000000    1.759569
  C      0.724526    0.000000    3.116867
  S     -1.334154    0.000000   -1.569541
  C     -0.699272    0.000000   -3.185695
  S     -1.908567    0.000000    1.759569
  C     -0.724526    0.000000    3.116867
  C     -1.346475    0.000000    4.386081
  C      1.346475    0.000000    4.386081
  C      0.694521    0.000000    5.608222
  H      2.432089    0.000000    4.376050
  C     -0.694521    0.000000    5.608222
  H     -2.432089    0.000000    4.376050
  H      1.267415    0.000000    6.531531
  H     -1.267415    0.000000    6.531531
  C      1.407609    0.000000   -4.385837
  C     -1.407609    0.000000   -4.385837
  C      0.698223    0.000000   -5.585972
  H      2.492438    0.000000   -4.375064
  C     -0.698223    0.000000   -5.585972
  H     -2.492438    0.000000   -4.375064
  H      1.235221    0.000000   -6.529923
  H     -1.235221    0.000000   -6.529923

 Total Charge           Charge          ....   -2
 Multiplicity           Mult            ....    2
 Number of Electrons    NEL             ....  175
 Basis Dimension        Dim             ....  475

ORBITAL ENERGIES
----------------
                 SPIN UP ORBITALS
  NO   OCC          E(Eh)            E(eV)    Irrep
   0   1.0000    -318.202840     -8658.7395    1-A1
   1   1.0000     -88.032137     -2395.4762    1-B1
   2   1.0000     -88.032123     -2395.4759    2-A1
   3   1.0000     -88.001421     -2394.6404    2-B1
   4   1.0000     -88.001418     -2394.6403    3-A1
   5   1.0000     -38.049591     -1035.3820    4-A1
   6   1.0000     -33.552268      -913.0036    3-B1
   7   1.0000     -33.550279      -912.9495    5-A1
   8   1.0000     -33.539776      -912.6637    1-B2
   9   1.0000      -9.838639      -267.7230    6-A1
  10   1.0000      -9.838228      -267.7118    4-B1
  11   1.0000      -9.838013      -267.7059    7-A1
  12   1.0000      -9.837596      -267.6946    5-B1
  13   1.0000      -9.833431      -267.5813    6-B1
  14   1.0000      -9.833427      -267.5812    8-A1
  15   1.0000      -9.831535      -267.5297    9-A1
  16   1.0000      -9.831276      -267.5226    7-B1
  17   1.0000      -9.812960      -267.0242   10-A1
  18   1.0000      -9.812515      -267.0121    8-B1
  19   1.0000      -9.803991      -266.7802    9-B1
  20   1.0000      -9.803987      -266.7800   11-A1
  21   1.0000      -7.603031      -206.8890   10-B1
  22   1.0000      -7.603022      -206.8887   12-A1
  23   1.0000      -7.568797      -205.9574   11-B1
  24   1.0000      -7.568791      -205.9573   13-A1
  25   1.0000      -5.525605      -150.3594   14-A1
  26   1.0000      -5.525605      -150.3594   12-B1
  27   1.0000      -5.521922      -150.2591   15-A1
  28   1.0000      -5.521916      -150.2590   13-B1
  29   1.0000      -5.518692      -150.1713    1-A2
  30   1.0000      -5.518692      -150.1712    2-B2
  31   1.0000      -5.492483      -149.4581   14-B1
  32   1.0000      -5.492483      -149.4581   16-A1
  33   1.0000      -5.486276      -149.2892   15-B1
  34   1.0000      -5.486276      -149.2892   17-A1
  35   1.0000      -5.484784      -149.2486    2-A2
  36   1.0000      -5.484784      -149.2485    3-B2
  37   1.0000      -4.047356      -110.1342   18-A1
  38   1.0000      -2.568578       -69.8946   16-B1
  39   1.0000      -2.566283       -69.8321   19-A1
  40   1.0000      -2.541274       -69.1516    4-B2
  41   1.0000      -0.609138       -16.5755   20-A1
  42   1.0000      -0.574440       -15.6313   21-A1
  43   1.0000      -0.532245       -14.4831   22-A1
  44   1.0000      -0.503102       -13.6901   17-B1
  45   1.0000      -0.483213       -13.1489   23-A1
  46   1.0000      -0.475633       -12.9426   18-B1
  47   1.0000      -0.422135       -11.4869   19-B1
  48   1.0000      -0.421702       -11.4751   24-A1
  49   1.0000      -0.389791       -10.6068   20-B1
  50   1.0000      -0.356826        -9.7097   25-A1
  51   1.0000      -0.337580        -9.1860   26-A1
  52   1.0000      -0.317700        -8.6451   21-B1
  53   1.0000      -0.310216        -8.4414   27-A1
  54   1.0000      -0.283142        -7.7047   22-B1
  55   1.0000      -0.249333        -6.7847   28-A1
  56   1.0000      -0.220729        -6.0063   29-A1
  57   1.0000      -0.206717        -5.6251   30-A1
  58   1.0000      -0.198047        -5.3891   23-B1
  59   1.0000      -0.173544        -4.7224   31-A1
  60   1.0000      -0.167338        -4.5535   24-B1
  61   1.0000      -0.159703        -4.3457   25-B1
  62   1.0000      -0.152534        -4.1507   32-A1
  63   1.0000      -0.136187        -3.7058    5-B2
  64   1.0000      -0.130378        -3.5478   26-B1
  65   1.0000      -0.110549        -3.0082   33-A1
  66   1.0000      -0.104994        -2.8570   27-B1
  67   1.0000      -0.102128        -2.7790    6-B2
  68   1.0000      -0.101560        -2.7636   34-A1
  69   1.0000      -0.073028        -1.9872   35-A1
  70   1.0000      -0.071250        -1.9388    7-B2
  71   1.0000      -0.050948        -1.3864   28-B1
  72   1.0000      -0.050824        -1.3830    3-A2
  73   1.0000      -0.049738        -1.3534   36-A1
  74   1.0000      -0.032620        -0.8876   29-B1
  75   1.0000      -0.025221        -0.6863    8-B2
  76   1.0000      -0.024111        -0.6561    4-A2
  77   1.0000      -0.017490        -0.4759   37-A1
  78   1.0000      -0.016241        -0.4419    9-B2
  79   1.0000      -0.005918        -0.1610    5-A2
  80   1.0000       0.008268         0.2250   38-A1
  81   1.0000       0.036853         1.0028   39-A1
  82   1.0000       0.048370         1.3162    6-A2
  83   1.0000       0.051994         1.4148   10-B2
  84   1.0000       0.052414         1.4263   30-B1
  85   1.0000       0.061469         1.6727    7-A2
  86   1.0000       0.091706         2.4954   11-B2
  87   1.0000       0.116393         3.1672   31-B1
  88   0.0000       0.173291         4.7155   40-A1
  89   0.0000       0.185976         5.0607   12-B2
  90   0.0000       0.187699         5.1075   41-A1
  91   0.0000       0.188697         5.1347   32-B1
  92   0.0000       0.199329         5.4240    8-A2

                 SPIN DOWN ORBITALS
  NO   OCC          E(Eh)            E(eV)    Irrep
   0   1.0000    -318.202563     -8658.7319    1-A1
   1   1.0000     -88.030417     -2395.4294    1-B1
   2   1.0000     -88.030403     -2395.4291    2-A1
   3   1.0000     -88.000825     -2394.6242    2-B1
   4   1.0000     -88.000822     -2394.6241    3-A1
   5   1.0000     -38.037569     -1035.0549    4-A1
   6   1.0000     -33.540526      -912.6841    3-B1
   7   1.0000     -33.538822      -912.6377    5-A1
   8   1.0000     -33.536366      -912.5709    1-B2
   9   1.0000      -9.838808      -267.7276    6-A1
  10   1.0000      -9.838397      -267.7164    4-B1
  11   1.0000      -9.838011      -267.7059    7-A1
  12   1.0000      -9.837595      -267.6946    5-B1
  13   1.0000      -9.833404      -267.5805    6-B1
  14   1.0000      -9.833400      -267.5804    8-A1
  15   1.0000      -9.831618      -267.5319    9-A1
  16   1.0000      -9.831359      -267.5249    7-B1
  17   1.0000      -9.812944      -267.0238   10-A1
  18   1.0000      -9.812498      -267.0116    8-B1
  19   1.0000      -9.803954      -266.7792    9-B1
  20   1.0000      -9.803950      -266.7790   11-A1
  21   1.0000      -7.601811      -206.8558   10-B1
  22   1.0000      -7.601803      -206.8556   12-A1
  23   1.0000      -7.568388      -205.9463   11-B1
  24   1.0000      -7.568382      -205.9462   13-A1
  25   1.0000      -5.524049      -150.3170   14-A1
  26   1.0000      -5.524049      -150.3170   12-B1
  27   1.0000      -5.518290      -150.1603   15-A1
  28   1.0000      -5.518284      -150.1602   13-B1
  29   1.0000      -5.517355      -150.1349    1-A2
  30   1.0000      -5.517355      -150.1349    2-B2
  31   1.0000      -5.491999      -149.4449   14-B1
  32   1.0000      -5.491999      -149.4449   16-A1
  33   1.0000      -5.484972      -149.2537   15-B1
  34   1.0000      -5.484972      -149.2537   17-A1
  35   1.0000      -5.484335      -149.2363    2-A2
  36   1.0000      -5.484335      -149.2363    3-B2
  37   1.0000      -4.023531      -109.4859   18-A1
  38   1.0000      -2.538652       -69.0802   16-B1
  39   1.0000      -2.536642       -69.0255   19-A1
  40   1.0000      -2.532297       -68.9073    4-B2
  41   1.0000      -0.608335       -16.5536   20-A1
  42   1.0000      -0.574322       -15.6281   21-A1
  43   1.0000      -0.529327       -14.4037   22-A1
  44   1.0000      -0.501981       -13.6596   17-B1
  45   1.0000      -0.482707       -13.1351   23-A1
  46   1.0000      -0.475110       -12.9284   18-B1
  47   1.0000      -0.417374       -11.3573   24-A1
  48   1.0000      -0.414698       -11.2845   19-B1
  49   1.0000      -0.387749       -10.5512   20-B1
  50   1.0000      -0.354745        -9.6531   25-A1
  51   1.0000      -0.335635        -9.1331   26-A1
  52   1.0000      -0.314784        -8.5657   21-B1
  53   1.0000      -0.309529        -8.4227   27-A1
  54   1.0000      -0.281926        -7.6716   22-B1
  55   1.0000      -0.248293        -6.7564   28-A1
  56   1.0000      -0.220368        -5.9965   29-A1
  57   1.0000      -0.204935        -5.5766   30-A1
  58   1.0000      -0.196675        -5.3518   23-B1
  59   1.0000      -0.173155        -4.7118   31-A1
  60   1.0000      -0.164353        -4.4723   24-B1
  61   1.0000      -0.159000        -4.3266   25-B1
  62   1.0000      -0.150243        -4.0883   32-A1
  63   1.0000      -0.135540        -3.6882    5-B2
  64   1.0000      -0.129917        -3.5352   26-B1
  65   1.0000      -0.107303        -2.9199   33-A1
  66   1.0000      -0.102086        -2.7779    6-B2
  67   1.0000      -0.100303        -2.7294   34-A1
  68   1.0000      -0.093865        -2.5542   27-B1
  69   1.0000      -0.067414        -1.8344    7-B2
  70   1.0000      -0.066618        -1.8128   35-A1
  71   1.0000      -0.048427        -1.3178   36-A1
  72   1.0000      -0.043438        -1.1820    3-A2
  73   1.0000      -0.041618        -1.1325   28-B1
  74   1.0000      -0.020876        -0.5681    4-A2
  75   1.0000      -0.020639        -0.5616    8-B2
  76   1.0000      -0.018705        -0.5090   29-B1
  77   1.0000      -0.013740        -0.3739    9-B2
  78   1.0000      -0.006064        -0.1650   37-A1
  79   1.0000      -0.005304        -0.1443    5-A2
  80   1.0000       0.019553         0.5321   38-A1
  81   1.0000       0.040196         1.0938   39-A1
  82   1.0000       0.055095         1.4992    6-A2
  83   1.0000       0.056648         1.5415   10-B2
  84   1.0000       0.059369         1.6155   30-B1
  85   1.0000       0.063096         1.7169    7-A2
  86   1.0000       0.093919         2.5557   11-B2
  87   0.0000       0.143275         3.8987   31-B1
  88   0.0000       0.175330         4.7710   40-A1
  89   0.0000       0.185922         5.0592   12-B2
  90   0.0000       0.188504         5.1295   41-A1
  91   0.0000       0.191451         5.2097   32-B1

MULLIKEN ATOMIC CHARGES AND SPIN POPULATIONS
--------------------------------------------
   0 Cu:    0.196172    0.303790
   1 S :   -0.314557    0.277259
   2 C :    0.057227   -0.011210
   3 S :   -0.565698    0.088469
   4 C :   -0.022250   -0.005601
   5 S :   -0.314557    0.277259
   6 C :    0.057227   -0.011210
   7 S :   -0.565698    0.088469
   8 C :   -0.022250   -0.005601
   9 C :   -0.049323   -0.000568
  10 C :   -0.049323   -0.000568
  11 C :   -0.142217   -0.000379
  12 H :    0.083171    0.001613
  13 C :   -0.142217   -0.000379
  14 H :    0.083171    0.001613
  15 H :    0.024965    0.000524
  16 H :    0.024965    0.000524
  17 C :   -0.131166   -0.003636
  18 C :   -0.131166   -0.003636
  19 C :   -0.131383   -0.002478
  20 H :    0.053495    0.002763
  21 C :   -0.131383   -0.002478
  22 H :    0.053495    0.002763
  23 H :    0.039650    0.001350
  24 H :    0.039650    0.001350
Sum of atomic charges         :   -2.0000000

LOEWDIN ATOMIC CHARGES AND SPIN POPULATIONS
-------------------------------------------
   0 Cu:   -0.858548    0.373919
   1 S :    0.051907    0.211526
   2 C :   -0.004437    0.008944
   3 S :   -0.086205    0.073591
   4 C :   -0.028961    0.001152
   5 S :    0.051907    0.211526
   6 C :   -0.004437    0.008944
   7 S :   -0.086205    0.073591
   8 C :   -0.028961    0.001152
   9 C :    0.292334    0.002574
  10 C :    0.292334    0.002574
  11 C :    0.307923    0.000051
  12 H :   -0.490505    0.005224
  13 C :    0.307923    0.000051
  14 H :   -0.490505    0.005224
  15 H :   -0.416144    0.000065
  16 H :   -0.416144    0.000065
  17 C :    0.322652    0.003008
  18 C :    0.322652    0.003008
  19 C :    0.317176   -0.001254
  20 H :   -0.418569    0.008128
  21 C :    0.317176   -0.001254
  22 H :   -0.418569    0.008128
  23 H :   -0.417896    0.000031
  24 H :   -0.417896    0.000031

  Mayer bond orders larger than 0.100000
B(  0-Cu,  1-S ) :   1.0985 B(  0-Cu,  3-S ) :   0.4577 B(  0-Cu,  5-S ) :   1.0985
B(  0-Cu,  7-S ) :   0.4577 B(  1-S ,  2-C ) :   1.1692 B(  2-C ,  6-C ) :   1.2141
B(  2-C , 17-C ) :   1.3291 B(  3-S ,  4-C ) :   1.1536 B(  4-C ,  8-C ) :   1.2742
B(  4-C , 10-C ) :   1.3084 B(  5-S ,  6-C ) :   1.1692 B(  6-C , 18-C ) :   1.3291
B(  7-S ,  8-C ) :   1.1536 B(  8-C ,  9-C ) :   1.3084 B(  9-C , 13-C ) :   1.3716
B(  9-C , 14-H ) :   0.9591 B( 10-C , 11-C ) :   1.3716 B( 10-C , 12-H ) :   0.9591
B( 11-C , 13-C ) :   1.3257 B( 11-C , 15-H ) :   0.9914 B( 13-C , 16-H ) :   0.9914
B( 17-C , 19-C ) :   1.3648 B( 17-C , 20-H ) :   0.9767 B( 18-C , 21-C ) :   1.3648
B( 18-C , 22-H ) :   0.9767 B( 19-C , 21-C ) :   1.3433 B( 19-C , 23-H ) :   0.9839
B( 21-C , 24-H ) :   0.9839

FINAL SINGLE POINT ENERGY     -3686.827608289627

DIPOLE MOMENT
-------------
                                X             Y             Z
Electronic contribution:      0.00000       0.00000      -2.51837
Nuclear contribution   :      0.00000       0.00000       0.89831
                        -----------------------------------------
Total Dipole Moment    :      0.00000       0.00000      -1.62007
                        -----------------------------------------
Magnitude (a.u.)       :      1.62007
Magnitude (Debye)      :      4.11788

Rotational constants in cm-1:     0.032590     0.004797     0.004182
Rotational constants in MHz :   977.026608   143.817227   125.363813

                             ****ORCA TERMINATED NORMALLY****
TOTAL RUN TIME: 0 days 5 hours 57 minutes 6 seconds 596 msec
