                         Program Version 5.0.4 -  RELEASE  -
|  1> ! RIJCOSX nofrozencore ReducedPop printbasis
|  2> ! M06L ano-rcc-dzp autoaux
|  3>
|  4> %maxcore 5000
|  5> %basis
|  6> PCDTrimBas overlap
|  7> PCDTrimAuxJ Coulomb
|  8> PCDTrimAuxJK Coulomb
|  9> PCDTrimAuxC Coulomb
| 10> PCDThresh -1
| 11> end
| 12>
| 13> %basis
| 14> newgto Cu "ano-rcc-tzp" end
| 15> newgto S "ano-rcc-tzp" end
| 16> end
| 17>
| 18> %pal
| 19> nprocs 12
| 20> end
| 21>
| 22> % sym SymThresh 1e-2 end
| 23> * xyz -2 2
| 24> Cu -1.085165924534465e-05 -4.0244158050591665e-06 -3.198508353984582e-05
| 25> S 0.8807340313812114 -0.6467781245447326 -2.049116626689266
| 26> C -0.3587229144449038 -0.5589958055024344 -3.090005392394783
| 27> S 2.040524184931794 -0.27908312724605566 1.0714713115804828
| 28> C 1.75736251647995 0.1191998803810822 2.638572189843286
| 29> S -2.040056075373246 0.2783932050027927 -1.0742122839881232
| 30> C -1.7615129041469184 -0.1144347423752456 -2.620721222054418
| 31> S -0.8830476714412767 0.6469577306484536 2.0472487880131576
| 32> C 0.37483826714806007 0.5575701560798447 3.1021822588216086
| 33> C 0.2428645876125425 0.8866823025675455 4.517264643062581
| 34> C 2.7923890793189234 0.07926975073196231 3.6670404079759344
| 35> C 2.572429147216884 0.4170344313874538 5.01978571682212
| 36> H 3.8508007715135335 -0.2132911791905123 3.5175021649789064
| 37> C 1.3116160777317538 0.8162445197050269 5.439870922991011
| 38> H -0.6831934980333626 1.2213025900711258 5.0233901184872645
| 39> H 3.413488613940558 0.35359714985768437 5.707631450695348
| 40> H 1.1164953787745198 1.0817701444763805 6.477147745310021
| 41> C -0.24044037316202338 -0.887956515758146 -4.520490014830733
| 42> C -2.79850978683126 -0.07740686193449443 -3.665359474640941
| 43> C -1.3128066360180901 -0.8167524985775781 -5.443697179965115
| 44> H 0.6690536033581008 -1.2285327312224013 -5.074545607415679
| 45> C -2.5722950067402857 -0.4179670757577136 -5.024078289571784
| 46> H -3.8722496137175155 0.21101225856469977 -3.553638733062911
| 47> H -1.1071566168216131 -1.0844867025670684 -6.479112270526675
| 48> H -3.4137300204327645 -0.35454075798254603 -5.712418646807084
| 49> *
| 50>
| 51> % eprnmr
| 52> gtensor true
| 53> Nuclei = all H {aiso,adip,aorb,fgrad,rho}
| 54> Nuclei = all Cu {aiso,adip,aorb,fgrad,rho}
| 55> end
| 56>
| 57>                          ****END OF INPUT****

CARTESIAN COORDINATES (ANGSTROEM)
---------------------------------
  Cu     0.000000    0.000000   -0.000034
  S      1.607591    0.000000   -1.675927
  C      0.772283    0.000000   -3.064364
  S      1.609112    0.000000    1.673432
  C      0.761327    0.000000    3.080607
  S     -1.607591    0.000000   -1.675927
  C     -0.772283    0.000000   -3.064364
  S     -1.609112    0.000000    1.673432
  C     -0.761327    0.000000    3.080607
  C     -1.403110    0.000000    4.391146
  C      1.403110    0.000000    4.391146
  C      0.693810    0.000000    5.612735
  H      2.494133    0.000000    4.582484
  C     -0.693810    0.000000    5.612735
  H     -2.494133    0.000000    4.582484
  H      1.264769    0.000000    6.539301
  H     -1.264769    0.000000    6.539301
  C      1.408187    0.000000   -4.392473
  C     -1.408187    0.000000   -4.392473
  C      0.693076    0.000000   -5.616780
  H      2.500443    0.000000   -4.629832
  C     -0.693076    0.000000   -5.616780
  H     -2.500443    0.000000   -4.629832
  H      1.268947    0.000000   -6.541075
  H     -1.268947    0.000000   -6.541075

 Total Charge           Charge          ....   -2
 Multiplicity           Mult            ....    2
 Number of Electrons    NEL             ....  175
 Basis Dimension        Dim             ....  475

ORBITAL ENERGIES
----------------
                 SPIN UP ORBITALS
  NO   OCC          E(Eh)            E(eV)    Irrep
   0   1.0000    -318.192570     -8658.4600    1-A1
   1   1.0000     -88.020965     -2395.1722    1-B1
   2   1.0000     -88.020951     -2395.1718    2-A1
   3   1.0000     -88.020158     -2395.1503    2-B1
   4   1.0000     -88.020141     -2395.1498    3-A1
   5   1.0000     -38.038281     -1035.0742    4-A1
   6   1.0000     -33.541480      -912.7101    3-B1
   7   1.0000     -33.540497      -912.6833    5-A1
   8   1.0000     -33.526682      -912.3074    1-B2
   9   1.0000      -9.843333      -267.8507    6-A1
  10   1.0000      -9.843227      -267.8478    7-A1
  11   1.0000      -9.843226      -267.8478    4-B1
  12   1.0000      -9.843096      -267.8443    5-B1
  13   1.0000      -9.821461      -267.2555    6-B1
  14   1.0000      -9.821458      -267.2555    8-A1
  15   1.0000      -9.821228      -267.2492    7-B1
  16   1.0000      -9.821225      -267.2491    9-A1
  17   1.0000      -9.818970      -267.1878   10-A1
  18   1.0000      -9.818520      -267.1755    8-B1
  19   1.0000      -9.816378      -267.1172   11-A1
  20   1.0000      -9.815920      -267.1048    9-B1
  21   1.0000      -7.592046      -206.5901   10-B1
  22   1.0000      -7.592031      -206.5897   12-A1
  23   1.0000      -7.591960      -206.5877   11-B1
  24   1.0000      -7.591942      -206.5872   13-A1
  25   1.0000      -5.514486      -150.0568   12-B1
  26   1.0000      -5.514486      -150.0568   14-A1
  27   1.0000      -5.514237      -150.0500   13-B1
  28   1.0000      -5.514236      -150.0500   15-A1
  29   1.0000      -5.509807      -149.9295   14-B1
  30   1.0000      -5.509807      -149.9295   16-A1
  31   1.0000      -5.509621      -149.9244   15-B1
  32   1.0000      -5.509620      -149.9244   17-A1
  33   1.0000      -5.508431      -149.8920    1-A2
  34   1.0000      -5.508430      -149.8920    2-B2
  35   1.0000      -5.508417      -149.8917    2-A2
  36   1.0000      -5.508417      -149.8916    3-B2
  37   1.0000      -4.035922      -109.8230   18-A1
  38   1.0000      -2.557516       -69.5935   16-B1
  39   1.0000      -2.555803       -69.5469   19-A1
  40   1.0000      -2.528192       -68.7956    4-B2
  41   1.0000      -0.574014       -15.6197   20-A1
  42   1.0000      -0.569991       -15.5102   21-A1
  43   1.0000      -0.512381       -13.9426   22-A1
  44   1.0000      -0.510847       -13.9009   23-A1
  45   1.0000      -0.489610       -13.3230   17-B1
  46   1.0000      -0.488898       -13.3036   18-B1
  47   1.0000      -0.427715       -11.6387   19-B1
  48   1.0000      -0.425969       -11.5912   20-B1
  49   1.0000      -0.384016       -10.4496   24-A1
  50   1.0000      -0.377963       -10.2849   25-A1
  51   1.0000      -0.307540        -8.3686   26-A1
  52   1.0000      -0.301589        -8.2066   27-A1
  53   1.0000      -0.289635        -7.8814   21-B1
  54   1.0000      -0.284619        -7.7449   22-B1
  55   1.0000      -0.223076        -6.0702   28-A1
  56   1.0000      -0.216458        -5.8901   29-A1
  57   1.0000      -0.183483        -4.9928   30-A1
  58   1.0000      -0.180114        -4.9011   23-B1
  59   1.0000      -0.179982        -4.8976   31-A1
  60   1.0000      -0.174601        -4.7511   24-B1
  61   1.0000      -0.135727        -3.6933   32-A1
  62   1.0000      -0.134352        -3.6559   25-B1
  63   1.0000      -0.128786        -3.5045   26-B1
  64   1.0000      -0.109609        -2.9826   33-A1
  65   1.0000      -0.108333        -2.9479    5-B2
  66   1.0000      -0.105593        -2.8733    6-B2
  67   1.0000      -0.085464        -2.3256   34-A1
  68   1.0000      -0.081552        -2.2191   27-B1
  69   1.0000      -0.076183        -2.0730   28-B1
  70   1.0000      -0.068755        -1.8709   35-A1
  71   1.0000      -0.048257        -1.3131   29-B1
  72   1.0000      -0.045515        -1.2385    7-B2
  73   1.0000      -0.043248        -1.1768    8-B2
  74   1.0000      -0.036969        -1.0060    3-A2
  75   1.0000      -0.031701        -0.8626   36-A1
  76   1.0000      -0.024690        -0.6719    4-A2
  77   1.0000      -0.009841        -0.2678   37-A1
  78   1.0000      -0.006801        -0.1851    5-A2
  79   1.0000      -0.006636        -0.1806    9-B2
  80   1.0000       0.012204         0.3321   38-A1
  81   1.0000       0.020942         0.5699   39-A1
  82   1.0000       0.022163         0.6031   30-B1
  83   1.0000       0.044231         1.2036    6-A2
  84   1.0000       0.045692         1.2434    7-A2
  85   1.0000       0.070755         1.9253   10-B2
  86   1.0000       0.090634         2.4663   31-B1
  87   1.0000       0.093208         2.5363   11-B2
  88   0.0000       0.183385         4.9901   40-A1
  89   0.0000       0.184776         5.0280   41-A1
  90   0.0000       0.197457         5.3731   32-B1
  91   0.0000       0.197984         5.3874   12-B2
  92   0.0000       0.198532         5.4023   33-B1

                 SPIN DOWN ORBITALS
  NO   OCC          E(Eh)            E(eV)    Irrep
   0   1.0000    -318.192393     -8658.4552    1-A1
   1   1.0000     -88.019914     -2395.1436    1-B1
   2   1.0000     -88.019899     -2395.1432    2-A1
   3   1.0000     -88.019134     -2395.1224    2-B1
   4   1.0000     -88.019117     -2395.1219    3-A1
   5   1.0000     -38.022236     -1034.6377    4-A1
   6   1.0000     -33.526154      -912.2930    3-B1
   7   1.0000     -33.525207      -912.2673    5-A1
   8   1.0000     -33.522314      -912.1885    1-B2
   9   1.0000      -9.843369      -267.8517    6-A1
  10   1.0000      -9.843283      -267.8493    7-A1
  11   1.0000      -9.843262      -267.8488    4-B1
  12   1.0000      -9.843151      -267.8458    5-B1
  13   1.0000      -9.821395      -267.2537    6-B1
  14   1.0000      -9.821392      -267.2537    8-A1
  15   1.0000      -9.821159      -267.2473    7-B1
  16   1.0000      -9.821155      -267.2472    9-A1
  17   1.0000      -9.818938      -267.1869   10-A1
  18   1.0000      -9.818488      -267.1746    8-B1
  19   1.0000      -9.816343      -267.1163   11-A1
  20   1.0000      -9.815886      -267.1038    9-B1
  21   1.0000      -7.591331      -206.5706   10-B1
  22   1.0000      -7.591317      -206.5702   12-A1
  23   1.0000      -7.591265      -206.5688   11-B1
  24   1.0000      -7.591247      -206.5683   13-A1
  25   1.0000      -5.513527      -150.0307   12-B1
  26   1.0000      -5.513526      -150.0307   14-A1
  27   1.0000      -5.513289      -150.0242   13-B1
  28   1.0000      -5.513288      -150.0242   15-A1
  29   1.0000      -5.507660      -149.8710   14-B1
  30   1.0000      -5.507660      -149.8710   16-A1
  31   1.0000      -5.507637      -149.8704    1-A2
  32   1.0000      -5.507637      -149.8704    2-B2
  33   1.0000      -5.507631      -149.8703    2-A2
  34   1.0000      -5.507630      -149.8702    3-B2
  35   1.0000      -5.507548      -149.8680   15-B1
  36   1.0000      -5.507547      -149.8680   17-A1
  37   1.0000      -4.001531      -108.8872   18-A1
  38   1.0000      -2.516347       -68.4733    4-B2
  39   1.0000      -2.514673       -68.4277   16-B1
  40   1.0000      -2.512925       -68.3802   19-A1
  41   1.0000      -0.573146       -15.5961   20-A1
  42   1.0000      -0.568955       -15.4821   21-A1
  43   1.0000      -0.510537       -13.8924   22-A1
  44   1.0000      -0.509032       -13.8515   23-A1
  45   1.0000      -0.487189       -13.2571   17-B1
  46   1.0000      -0.486440       -13.2367   18-B1
  47   1.0000      -0.425193       -11.5701   19-B1
  48   1.0000      -0.423080       -11.5126   20-B1
  49   1.0000      -0.381639       -10.3849   24-A1
  50   1.0000      -0.375694       -10.2232   25-A1
  51   1.0000      -0.306282        -8.3344   26-A1
  52   1.0000      -0.300221        -8.1694   27-A1
  53   1.0000      -0.287945        -7.8354   21-B1
  54   1.0000      -0.282718        -7.6931   22-B1
  55   1.0000      -0.222472        -6.0538   28-A1
  56   1.0000      -0.215769        -5.8714   29-A1
  57   1.0000      -0.181525        -4.9395   30-A1
  58   1.0000      -0.179269        -4.8782   23-B1
  59   1.0000      -0.178004        -4.8437   31-A1
  60   1.0000      -0.172942        -4.7060   24-B1
  61   1.0000      -0.134212        -3.6521   32-A1
  62   1.0000      -0.133320        -3.6278   25-B1
  63   1.0000      -0.126605        -3.4451   26-B1
  64   1.0000      -0.108278        -2.9464   33-A1
  65   1.0000      -0.107744        -2.9319    5-B2
  66   1.0000      -0.104874        -2.8538    6-B2
  67   1.0000      -0.084177        -2.2906   34-A1
  68   1.0000      -0.080454        -2.1893   27-B1
  69   1.0000      -0.067530        -1.8376   28-B1
  70   1.0000      -0.067069        -1.8250   35-A1
  71   1.0000      -0.043097        -1.1727    7-B2
  72   1.0000      -0.042214        -1.1487    8-B2
  73   1.0000      -0.032101        -0.8735    3-A2
  74   1.0000      -0.024044        -0.6543   36-A1
  75   1.0000      -0.023014        -0.6262    4-A2
  76   1.0000      -0.014498        -0.3945   29-B1
  77   1.0000       0.002334         0.0635   37-A1
  78   1.0000       0.002929         0.0797    5-A2
  79   1.0000       0.006027         0.1640    9-B2
  80   1.0000       0.025307         0.6886   38-A1
  81   1.0000       0.026907         0.7322   39-A1
  82   1.0000       0.030642         0.8338   30-B1
  83   1.0000       0.046203         1.2572    6-A2
  84   1.0000       0.049314         1.3419    7-A2
  85   1.0000       0.072242         1.9658   10-B2
  86   1.0000       0.096339         2.6215   11-B2
  87   0.0000       0.124148         3.3782   31-B1
  88   0.0000       0.184364         5.0168   40-A1
  89   0.0000       0.185780         5.0553   41-A1
  90   0.0000       0.198021         5.3884   12-B2
  91   0.0000       0.199132         5.4187   32-B1

MULLIKEN ATOMIC CHARGES AND SPIN POPULATIONS
--------------------------------------------
   0 Cu:    0.116058    0.383241
   1 S :   -0.323672    0.153426
   2 C :   -0.033862   -0.002268
   3 S :   -0.343646    0.158511
   4 C :   -0.022834   -0.003604
   5 S :   -0.323672    0.153426
   6 C :   -0.033862   -0.002268
   7 S :   -0.343646    0.158511
   8 C :   -0.022834   -0.003604
   9 C :   -0.124431   -0.000596
  10 C :   -0.124431   -0.000596
  11 C :   -0.109849   -0.000445
  12 H :    0.043247    0.000636
  13 C :   -0.109849   -0.000445
  14 H :    0.043247    0.000636
  15 H :    0.030107    0.001440
  16 H :    0.030107    0.001440
  17 C :   -0.132864   -0.000340
  18 C :   -0.132864   -0.000340
  19 C :   -0.104518   -0.000344
  20 H :    0.035146    0.000435
  21 C :   -0.104518   -0.000344
  22 H :    0.035146    0.000435
  23 H :    0.029148    0.001528
  24 H :    0.029148    0.001528
Sum of atomic charges         :   -2.0000000

LOEWDIN ATOMIC CHARGES AND SPIN POPULATIONS
-------------------------------------------
   0 Cu:   -0.843242    0.447073
   1 S :    0.019231    0.116419
   2 C :   -0.067385    0.012700
   3 S :    0.018061    0.120337
   4 C :   -0.060661    0.011268
   5 S :    0.019231    0.116419
   6 C :   -0.067385    0.012700
   7 S :    0.018061    0.120337
   8 C :   -0.060661    0.011268
   9 C :    0.311490    0.004177
  10 C :    0.311490    0.004177
  11 C :    0.300618    0.000169
  12 H :   -0.431658    0.003311
  13 C :    0.300618    0.000169
  14 H :   -0.431658    0.003311
  15 H :   -0.423463    0.000395
  16 H :   -0.423463    0.000395
  17 C :    0.310981    0.004237
  18 C :    0.310981    0.004237
  19 C :    0.297089    0.000265
  20 H :   -0.427347    0.002737
  21 C :    0.297089    0.000265
  22 H :   -0.427347    0.002737
  23 H :   -0.425335    0.000447
  24 H :   -0.425335    0.000447

  Mayer bond orders larger than 0.100000
B(  0-Cu,  1-S ) :   0.6965 B(  0-Cu,  3-S ) :   0.7002 B(  0-Cu,  5-S ) :   0.6965
B(  0-Cu,  7-S ) :   0.7002 B(  1-S ,  2-C ) :   1.3006 B(  2-C ,  6-C ) :   1.1747
B(  2-C , 17-C ) :   1.3097 B(  3-S ,  4-C ) :   1.2761 B(  4-C ,  8-C ) :   1.1894
B(  4-C , 10-C ) :   1.3126 B(  5-S ,  6-C ) :   1.3006 B(  6-C , 18-C ) :   1.3097
B(  7-S ,  8-C ) :   1.2761 B(  8-C ,  9-C ) :   1.3126 B(  9-C , 13-C ) :   1.3453
B(  9-C , 14-H ) :   0.9854 B( 10-C , 11-C ) :   1.3453 B( 10-C , 12-H ) :   0.9854
B( 11-C , 13-C ) :   1.3419 B( 11-C , 15-H ) :   0.9876 B( 13-C , 16-H ) :   0.9876
B( 17-C , 19-C ) :   1.3406 B( 17-C , 20-H ) :   0.9890 B( 18-C , 21-C ) :   1.3406
B( 18-C , 22-H ) :   0.9890 B( 19-C , 21-C ) :   1.3430 B( 19-C , 23-H ) :   0.9879
B( 21-C , 24-H ) :   0.9879

FINAL SINGLE POINT ENERGY     -3686.863327825180

DIPOLE MOMENT
-------------
                                X             Y             Z
Electronic contribution:      0.00000      -0.00000       0.23471
Nuclear contribution   :     -0.00000       0.00000      -0.09185
                        -----------------------------------------
Total Dipole Moment    :      0.00000      -0.00000       0.14286
                        -----------------------------------------
Magnitude (a.u.)       :      0.14286
Magnitude (Debye)      :      0.36312

Rotational constants in cm-1:     0.033078     0.004799     0.004191
Rotational constants in MHz :   991.662686   143.880312   125.649788

                             ****ORCA TERMINATED NORMALLY****
TOTAL RUN TIME: 0 days 6 hours 31 minutes 43 seconds 222 msec
