                         Program Version 5.0.4 -  RELEASE  -
|  1> ! RIJCOSX nofrozencore ReducedPop printbasis
|  2> ! M06L ano-rcc-dzp autoaux
|  3>
|  4> %maxcore 5000
|  5> %basis
|  6> PCDTrimBas overlap
|  7> PCDTrimAuxJ Coulomb
|  8> PCDTrimAuxJK Coulomb
|  9> PCDTrimAuxC Coulomb
| 10> PCDThresh -1
| 11> end
| 12>
| 13> %basis
| 14> newgto Cu "ano-rcc-tzp" end
| 15> newgto S "ano-rcc-tzp" end
| 16> end
| 17>
| 18> %pal
| 19> nprocs 12
| 20> end
| 21>
| 22> % sym SymThresh 1e-2 end
| 23> * xyz -2 2
| 24> Cu -1.0499199947516083e-05 -7.332386861418394e-06 6.447482379484706e-05
| 25> S 1.2651271817440868 0.9131230091018183 -1.714940935036278
| 26> C 0.4674406360024364 0.3248262688579786 -3.2025866885657353
| 27> S 1.3444880747031476 0.9871696931167044 1.608116162380969
| 28> C 0.6954027767826907 0.5215522680838431 3.0749722159207424
| 29> S -1.349187957197325 -0.9905744702885615 -1.6043175967370813
| 30> C -0.6284894678692468 -0.473218835627887 -3.1579365274244218
| 31> S -1.2602346923549066 -0.9095440393977722 1.7180785413586648
| 32> C -0.540458110859839 -0.3783601633217943 3.13122433312545
| 33> C -0.985555888250653 -0.6955813484377311 4.560021940734169
| 34> C 1.218953940986496 0.9096954445625903 4.46514402264782
| 35> C 0.6977743093479798 0.5352308409814852 5.520278298252109
| 36> H 2.082244276974797 1.5360705309423346 3.966715755542138
| 37> C -0.422451002912707 -0.28053362796376 5.560221606889831
| 38> H -1.8712119616643372 -1.3427687699843716 4.1333396153405975
| 39> H 1.242204959202452 0.9359170443622274 6.365096357420688
| 40> H -0.8935798604409638 -0.6192580097577507 6.4688142523456476
| 41> C 1.0119536828013156 0.7158528525153208 -4.346484137558026
| 42> C -1.229867771978619 -0.9165929245386834 -4.249889560552247
| 43> C 0.41921800000690973 0.2777342224406439 -5.651174383850891
| 44> H 1.8830408910603353 1.3488091778515903 -4.6603388547016635
| 45> C -0.7037327604860053 -0.5399827778795737 -5.604549626031801
| 46> H -2.1151706299710926 -1.5626338746043962 -4.4946358191008695
| 47> H 0.8084658894533943 0.5564514513653848 -6.634646246199769
| 48> H -1.1437403776817334 -0.8651075216600703 -6.5514913741047245
| 49> *
| 50>
| 51> % eprnmr
| 52> gtensor true
| 53> Nuclei = all H {aiso,adip,aorb,fgrad,rho}
| 54> Nuclei = all Cu {aiso,adip,aorb,fgrad,rho}
| 55> end
| 56>
| 57>                          ****END OF INPUT****

CARTESIAN COORDINATES (ANGSTROEM)
---------------------------------
  Cu     0.000064   -0.000013    0.000000
  S     -1.712708    1.562688    0.000000
  C     -3.201790    0.573688    0.000000
  S      1.610527    1.665651    0.000000
  C      3.076243    0.864744    0.000000
  S     -1.606737   -1.671460    0.000000
  C     -3.159090   -0.782081    0.000000
  S      1.715854   -1.556631    0.000000
  C      3.130296   -0.664124    0.000000
  C      4.558317   -1.212722    0.000000
  C      4.467362    1.514457    0.000000
  C      5.521580    0.871196    0.000000
  H      3.970465    2.581762    0.000000
  C      5.559530   -0.514637    0.000000
  H      4.130054   -2.309028    0.000000
  H      6.367377    1.545955    0.000000
  H      6.467294   -1.096188    0.000000
  C     -4.344730    1.245688    0.000000
  C     -4.252125   -1.527649    0.000000
  C     -5.650490    0.510506    0.000000
  H     -4.657038    2.322904    0.000000
  C     -5.605864   -0.878688    0.000000
  H     -4.498450   -2.623256    0.000000
  H     -6.633280    0.990650    0.000000
  H     -6.553599   -1.424408    0.000000

 Total Charge           Charge          ....   -2
 Multiplicity           Mult            ....    2
 Number of Electrons    NEL             ....  175
 Basis Dimension        Dim             ....  475

ORBITAL ENERGIES
----------------
                 SPIN UP ORBITALS
  NO   OCC          E(Eh)            E(eV)    Irrep
   0   1.0000    -318.184323     -8658.2356    1-A'
   1   1.0000     -88.017243     -2395.0709    2-A'
   2   1.0000     -88.016962     -2395.0633    3-A'
   3   1.0000     -88.014418     -2394.9941    4-A'
   4   1.0000     -88.014374     -2394.9929    5-A'
   5   1.0000     -38.029423     -1034.8332    6-A'
   6   1.0000     -33.532638      -912.4695    7-A'
   7   1.0000     -33.531746      -912.4452    8-A'
   8   1.0000     -33.517852      -912.0671    1-A"
   9   1.0000      -9.837482      -267.6915    9-A'
  10   1.0000      -9.836818      -267.6734   10-A'
  11   1.0000      -9.835483      -267.6371   11-A'
  12   1.0000      -9.835045      -267.6252   12-A'
  13   1.0000      -9.830646      -267.5055   13-A'
  14   1.0000      -9.830518      -267.5020   14-A'
  15   1.0000      -9.823614      -267.3141   15-A'
  16   1.0000      -9.823452      -267.3097   16-A'
  17   1.0000      -9.812284      -267.0058   17-A'
  18   1.0000      -9.810964      -266.9699   18-A'
  19   1.0000      -9.807772      -266.8831   19-A'
  20   1.0000      -9.806388      -266.8454   20-A'
  21   1.0000      -7.585285      -206.4061   21-A'
  22   1.0000      -7.584991      -206.3981   22-A'
  23   1.0000      -7.584311      -206.3796   23-A'
  24   1.0000      -7.584284      -206.3789   24-A'
  25   1.0000      -5.508960      -149.9064   25-A'
  26   1.0000      -5.508665      -149.8984   26-A'
  27   1.0000      -5.506835      -149.8486   27-A'
  28   1.0000      -5.506823      -149.8483   28-A'
  29   1.0000      -5.503335      -149.7534   29-A'
  30   1.0000      -5.503054      -149.7457   30-A'
  31   1.0000      -5.502128      -149.7205   31-A'
  32   1.0000      -5.502093      -149.7196   32-A'
  33   1.0000      -5.500993      -149.6896    2-A"
  34   1.0000      -5.500764      -149.6834    3-A"
  35   1.0000      -5.500727      -149.6824    4-A"
  36   1.0000      -5.500689      -149.6814    5-A"
  37   1.0000      -4.026928      -109.5783   33-A'
  38   1.0000      -2.548486       -69.3478   34-A'
  39   1.0000      -2.546879       -69.3041   35-A'
  40   1.0000      -2.519200       -68.5509    6-A"
  41   1.0000      -0.602352       -16.3908   36-A'
  42   1.0000      -0.594128       -16.1670   37-A'
  43   1.0000      -0.506051       -13.7703   38-A'
  44   1.0000      -0.503665       -13.7054   39-A'
  45   1.0000      -0.498856       -13.5746   40-A'
  46   1.0000      -0.495726       -13.4894   41-A'
  47   1.0000      -0.433558       -11.7977   42-A'
  48   1.0000      -0.397532       -10.8174   43-A'
  49   1.0000      -0.393206       -10.6997   44-A'
  50   1.0000      -0.367505       -10.0003   45-A'
  51   1.0000      -0.335310        -9.1243   46-A'
  52   1.0000      -0.305403        -8.3104   47-A'
  53   1.0000      -0.296766        -8.0754   48-A'
  54   1.0000      -0.292554        -7.9608   49-A'
  55   1.0000      -0.236536        -6.4365   50-A'
  56   1.0000      -0.227334        -6.1861   51-A'
  57   1.0000      -0.208965        -5.6862   52-A'
  58   1.0000      -0.204338        -5.5603   53-A'
  59   1.0000      -0.195527        -5.3206   54-A'
  60   1.0000      -0.156841        -4.2679   55-A'
  61   1.0000      -0.138798        -3.7769   56-A'
  62   1.0000      -0.135588        -3.6895   57-A'
  63   1.0000      -0.129077        -3.5124   58-A'
  64   1.0000      -0.128267        -3.4903    7-A"
  65   1.0000      -0.119281        -3.2458    8-A"
  66   1.0000      -0.099581        -2.7097   59-A'
  67   1.0000      -0.064948        -1.7673   60-A'
  68   1.0000      -0.060673        -1.6510   61-A'
  69   1.0000      -0.056419        -1.5352   62-A'
  70   1.0000      -0.052813        -1.4371   63-A'
  71   1.0000      -0.043359        -1.1799    9-A"
  72   1.0000      -0.037960        -1.0329   10-A"
  73   1.0000      -0.030198        -0.8217   11-A"
  74   1.0000      -0.028659        -0.7799   64-A'
  75   1.0000      -0.024464        -0.6657   12-A"
  76   1.0000      -0.020712        -0.5636   65-A'
  77   1.0000      -0.007272        -0.1979   13-A"
  78   1.0000      -0.003363        -0.0915   66-A'
  79   1.0000      -0.000955        -0.0260   14-A"
  80   1.0000       0.014404         0.3920   67-A'
  81   1.0000       0.031726         0.8633   68-A'
  82   1.0000       0.031860         0.8669   69-A'
  83   1.0000       0.036036         0.9806   15-A"
  84   1.0000       0.055892         1.5209   16-A"
  85   1.0000       0.058891         1.6025   17-A"
  86   1.0000       0.100496         2.7346   18-A"
  87   1.0000       0.101299         2.7565   70-A'
  88   0.0000       0.176862         4.8127   71-A'
  89   0.0000       0.184109         5.0099   72-A'
  90   0.0000       0.191262         5.2045   19-A"
  91   0.0000       0.191380         5.2077   73-A'
  92   0.0000       0.200528         5.4566   20-A"

                 SPIN DOWN ORBITALS
  NO   OCC          E(Eh)            E(eV)    Irrep
   0   1.0000    -318.184148     -8658.2308    1-A'
   1   1.0000     -88.016102     -2395.0399    2-A'
   2   1.0000     -88.015822     -2395.0323    3-A'
   3   1.0000     -88.013465     -2394.9682    4-A'
   4   1.0000     -88.013419     -2394.9669    5-A'
   5   1.0000     -38.013563     -1034.4016    6-A'
   6   1.0000     -33.517483      -912.0571    7-A'
   7   1.0000     -33.516626      -912.0338    8-A'
   8   1.0000     -33.513534      -911.9496    1-A"
   9   1.0000      -9.837596      -267.6946    9-A'
  10   1.0000      -9.836932      -267.6765   10-A'
  11   1.0000      -9.835439      -267.6359   11-A'
  12   1.0000      -9.835001      -267.6240   12-A'
  13   1.0000      -9.830620      -267.5048   13-A'
  14   1.0000      -9.830491      -267.5012   14-A'
  15   1.0000      -9.823709      -267.3167   15-A'
  16   1.0000      -9.823547      -267.3123   16-A'
  17   1.0000      -9.812153      -267.0023   17-A'
  18   1.0000      -9.810835      -266.9664   18-A'
  19   1.0000      -9.807740      -266.8822   19-A'
  20   1.0000      -9.806355      -266.8445   20-A'
  21   1.0000      -7.584497      -206.3847   21-A'
  22   1.0000      -7.584204      -206.3767   22-A'
  23   1.0000      -7.583666      -206.3621   23-A'
  24   1.0000      -7.583640      -206.3613   24-A'
  25   1.0000      -5.507974      -149.8796   25-A'
  26   1.0000      -5.507678      -149.8716   26-A'
  27   1.0000      -5.505978      -149.8253   27-A'
  28   1.0000      -5.505962      -149.8248   28-A'
  29   1.0000      -5.500901      -149.6871   29-A'
  30   1.0000      -5.500623      -149.6796   30-A'
  31   1.0000      -5.500197      -149.6680   31-A'
  32   1.0000      -5.500164      -149.6671   32-A'
  33   1.0000      -5.500131      -149.6662    2-A"
  34   1.0000      -5.500035      -149.6636    3-A"
  35   1.0000      -5.500000      -149.6626    4-A"
  36   1.0000      -5.499827      -149.6579    5-A"
  37   1.0000      -3.993141      -108.6589   33-A'
  38   1.0000      -2.507503       -68.2326    6-A"
  39   1.0000      -2.506362       -68.2016   34-A'
  40   1.0000      -2.504735       -68.1573   35-A'
  41   1.0000      -0.601960       -16.3802   36-A'
  42   1.0000      -0.593867       -16.1599   37-A'
  43   1.0000      -0.505209       -13.7474   38-A'
  44   1.0000      -0.501386       -13.6434   39-A'
  45   1.0000      -0.498102       -13.5540   40-A'
  46   1.0000      -0.494599       -13.4587   41-A'
  47   1.0000      -0.429534       -11.6882   42-A'
  48   1.0000      -0.393463       -10.7067   43-A'
  49   1.0000      -0.389370       -10.5953   44-A'
  50   1.0000      -0.365284        -9.9399   45-A'
  51   1.0000      -0.333828        -9.0839   46-A'
  52   1.0000      -0.303082        -8.2473   47-A'
  53   1.0000      -0.294732        -8.0201   48-A'
  54   1.0000      -0.291432        -7.9303   49-A'
  55   1.0000      -0.235898        -6.4191   50-A'
  56   1.0000      -0.226644        -6.1673   51-A'
  57   1.0000      -0.208157        -5.6642   52-A'
  58   1.0000      -0.203360        -5.5337   53-A'
  59   1.0000      -0.195088        -5.3086   54-A'
  60   1.0000      -0.156082        -4.2472   55-A'
  61   1.0000      -0.137327        -3.7369   56-A'
  62   1.0000      -0.134223        -3.6524   57-A'
  63   1.0000      -0.128103        -3.4859    7-A"
  64   1.0000      -0.126422        -3.4401   58-A'
  65   1.0000      -0.119163        -3.2426    8-A"
  66   1.0000      -0.098048        -2.6680   59-A'
  67   1.0000      -0.063140        -1.7181   60-A'
  68   1.0000      -0.054215        -1.4753   61-A'
  69   1.0000      -0.053053        -1.4437   62-A'
  70   1.0000      -0.041115        -1.1188    9-A"
  71   1.0000      -0.040227        -1.0946   63-A'
  72   1.0000      -0.037065        -1.0086   10-A"
  73   1.0000      -0.027574        -0.7503   11-A"
  74   1.0000      -0.023748        -0.6462   12-A"
  75   1.0000      -0.014031        -0.3818   64-A'
  76   1.0000      -0.004755        -0.1294   65-A'
  77   1.0000       0.002375         0.0646   13-A"
  78   1.0000       0.007411         0.2017   66-A'
  79   1.0000       0.011234         0.3057   14-A"
  80   1.0000       0.029167         0.7937   67-A'
  81   1.0000       0.037572         1.0224   68-A'
  82   1.0000       0.040131         1.0920   69-A'
  83   1.0000       0.040376         1.0987   15-A"
  84   1.0000       0.060528         1.6470   16-A"
  85   1.0000       0.062045         1.6883   17-A"
  86   1.0000       0.103285         2.8105   18-A"
  87   0.0000       0.134164         3.6508   70-A'
  88   0.0000       0.178703         4.8627   71-A'
  89   0.0000       0.184689         5.0257   72-A'
  90   0.0000       0.191269         5.2047   19-A"
  91   0.0000       0.194509         5.2929   73-A'

MULLIKEN ATOMIC CHARGES AND SPIN POPULATIONS
--------------------------------------------
   0 Cu:    0.130061    0.376412
   1 S :   -0.446076    0.175969
   2 C :    0.019782   -0.009660
   3 S :   -0.360342    0.143880
   4 C :    0.000983   -0.005882
   5 S :   -0.447032    0.176276
   6 C :    0.020097   -0.009777
   7 S :   -0.361484    0.143522
   8 C :   -0.000468   -0.005711
   9 C :   -0.060603    0.004419
  10 C :   -0.055898    0.004349
  11 C :   -0.189899   -0.001184
  12 H :    0.046747    0.002354
  13 C :   -0.181568   -0.001156
  14 H :    0.044095    0.002274
  15 H :    0.020652    0.000949
  16 H :    0.021227    0.000856
  17 C :   -0.060043   -0.001710
  18 C :   -0.058309   -0.001615
  19 C :   -0.116644    0.000286
  20 H :    0.040937    0.000992
  21 C :   -0.117074    0.000262
  22 H :    0.040227    0.000973
  23 H :    0.035391    0.001461
  24 H :    0.035241    0.001462
Sum of atomic charges         :   -2.0000000

LOEWDIN ATOMIC CHARGES AND SPIN POPULATIONS
-------------------------------------------
   0 Cu:   -0.881308    0.442355
   1 S :    0.001155    0.135095
   2 C :   -0.064598    0.003784
   3 S :    0.036408    0.106613
   4 C :   -0.019295    0.007409
   5 S :    0.000262    0.135106
   6 C :   -0.065469    0.003750
   7 S :    0.036772    0.106528
   8 C :   -0.017935    0.007445
   9 C :    0.280919    0.005314
  10 C :    0.286260    0.005377
  11 C :    0.262749    0.000029
  12 H :   -0.444948    0.010800
  13 C :    0.256232    0.000000
  14 H :   -0.444874    0.010842
  15 H :   -0.420790    0.000011
  16 H :   -0.420060   -0.000010
  17 C :    0.301691    0.003949
  18 C :    0.301210    0.003967
  19 C :    0.334708    0.000636
  20 H :   -0.410068    0.004673
  21 C :    0.335511    0.000629
  22 H :   -0.408774    0.004663
  23 H :   -0.417752    0.000522
  24 H :   -0.418006    0.000513

  Mayer bond orders larger than 0.100000
B(  0-Cu,  1-S ) :   0.7089 B(  0-Cu,  3-S ) :   0.6959 B(  0-Cu,  5-S ) :   0.7096
B(  0-Cu,  7-S ) :   0.6960 B(  1-S ,  2-C ) :   1.1433 B(  2-C ,  6-C ) :   1.2203
B(  2-C , 17-C ) :   1.4040 B(  3-S ,  4-C ) :   1.2380 B(  4-C ,  8-C ) :   1.2830
B(  4-C , 10-C ) :   1.1749 B(  5-S ,  6-C ) :   1.1407 B(  6-C , 18-C ) :   1.4060
B(  7-S ,  8-C ) :   1.2345 B(  8-C ,  9-C ) :   1.1734 B(  9-C , 13-C ) :   1.5156
B(  9-C , 14-H ) :   0.9298 B( 10-C , 11-C ) :   1.5107 B( 10-C , 12-H ) :   0.9290
B( 11-C , 13-C ) :   1.2295 B( 11-C , 15-H ) :   0.9967 B( 13-C , 16-H ) :   0.9969
B( 17-C , 19-C ) :   1.2599 B( 17-C , 20-H ) :   0.9671 B( 18-C , 21-C ) :   1.2578
B( 18-C , 22-H ) :   0.9668 B( 19-C , 21-C ) :   1.4377 B( 19-C , 23-H ) :   0.9826
B( 21-C , 24-H ) :   0.9824

FINAL SINGLE POINT ENERGY     -3686.741459763406

DIPOLE MOMENT
-------------
                                X             Y             Z
Electronic contribution:      0.69360      -0.00454      -0.00000
Nuclear contribution   :     -1.32071      -0.01083       0.00000
                        -----------------------------------------
Total Dipole Moment    :     -0.62711      -0.01537      -0.00000
                        -----------------------------------------
Magnitude (a.u.)       :      0.62730
Magnitude (Debye)      :      1.59447

Rotational constants in cm-1:     0.033411     0.004803     0.004200
Rotational constants in MHz :  1001.638609   144.003618   125.902817

                             ****ORCA TERMINATED NORMALLY****
TOTAL RUN TIME: 0 days 7 hours 14 minutes 42 seconds 56 msec
