                         Program Version 5.0.4 -  RELEASE  -
|  1> ! RIJCOSX nofrozencore ReducedPop printbasis
|  2> ! M06L ano-rcc-dzp autoaux
|  3>
|  4> %maxcore 5000
|  5> %basis
|  6> PCDTrimBas overlap
|  7> PCDTrimAuxJ Coulomb
|  8> PCDTrimAuxJK Coulomb
|  9> PCDTrimAuxC Coulomb
| 10> PCDThresh -1
| 11> end
| 12>
| 13> %basis
| 14> newgto Cu "ano-rcc-tzp" end
| 15> newgto S "ano-rcc-tzp" end
| 16> end
| 17>
| 18> %pal
| 19> nprocs 12
| 20> end
| 21>
| 22> % sym SymThresh 1e-2 end
| 23> * xyz -2 2
| 24> Cu -4.109873814707477e-05 -7.441914820362327e-06 4.528976321935513e-06
| 25> S 1.8300051067051135 0.2413182374886507 1.3928159495384085
| 26> C 3.267520387763899 0.5599290802736425 0.2018406065294449
| 27> S -1.3807843980040875 -0.34442138907331726 1.8236438793169836
| 28> C -3.070680730552748 -0.597255240702068 1.0685207319336196
| 29> S 1.3775365499789156 0.3439319344488927 -1.82503269981511
| 30> C 3.0915946828618996 0.6003229098538738 -1.0580887096087972
| 31> S -1.8327914515436052 -0.2419391787120917 -1.3904476988257428
| 32> C -3.249137983713754 -0.5557698419031076 -0.21857478360853325
| 33> C -4.45758882757177 -0.7367130988152317 -0.7560715439251718
| 34> C -4.081805450321639 -0.8215717115042639 1.9099662526823664
| 35> C -5.339795410990446 -1.0140970125906077 1.4241754866831495
| 36> H -3.672820631990851 -0.8083440091710168 2.9419896187797216
| 37> C -5.535413891038593 -0.9700888259410739 0.03927676654529302
| 38> H -4.356431900585 -0.6568609690591397 -1.8568194489193215
| 39> H -6.18798819863457 -1.1990576680007172 2.0731985927346623
| 40> H -6.528002848898233 -1.120609344365414 -0.36859013587923833
| 41> C 4.454171948220628 0.7363410592529684 0.7520803293150751
| 42> C 4.082531052341905 0.8212357554802631 -1.901770985434856
| 43> C 5.530480263235664 0.9692045844872199 -0.03889441232018765
| 44> H 4.290844608611102 0.645230586617284 1.8596950978524838
| 45> C 5.33457849508123 1.0132650840996444 -1.4255965146146459
| 46> H 3.624001081303074 0.7988784587218891 -2.925532423078796
| 47> H 6.5276324808022865 1.1212407881747135 0.35626251339194565
| 48> H 6.182084395779066 1.1980869685812539 -2.0742890621200227
| 49> *
| 50>
| 51> % eprnmr
| 52> gtensor true
| 53> Nuclei = all H {aiso,adip,aorb,fgrad,rho}
| 54> Nuclei = all Cu {aiso,adip,aorb,fgrad,rho}
| 55> end
| 56>
| 57>                          ****END OF INPUT****

CARTESIAN COORDINATES (ANGSTROEM)
---------------------------------
  Cu     0.000000   -0.000000   -0.000042
  S      0.000000    1.625562    1.644510
  C      0.000000    0.636397    3.260279
  S      0.000000    1.623668   -1.647616
  C      0.000000    0.650034   -3.240061
  S      0.000000   -1.625562    1.644510
  C      0.000000   -0.636397    3.260279
  S      0.000000   -1.623668   -1.647616
  C      0.000000   -0.650034   -3.240061
  C      0.000000   -1.346864   -4.378384
  C      0.000000    1.346864   -4.378384
  C      0.000000    0.699669   -5.575591
  H      0.000000    2.424807   -4.116835
  C      0.000000   -0.699669   -5.575591
  H      0.000000   -2.424807   -4.116835
  H      0.000000    1.233297   -6.518875
  H      0.000000   -1.233297   -6.518875
  C      0.000000    1.340546    4.376732
  C      0.000000   -1.340546    4.376732
  C      0.000000    0.700582    5.570557
  H      0.000000    2.416954    4.057901
  C      0.000000   -0.700582    5.570557
  H      0.000000   -2.416954    4.057901
  H      0.000000    1.228095    6.516666
  H      0.000000   -1.228095    6.516666

 Total Charge           Charge          ....   -2
 Multiplicity           Mult            ....    2
 Number of Electrons    NEL             ....  175
 Basis Dimension        Dim             ....  475

ORBITAL ENERGIES
----------------
                 SPIN UP ORBITALS
  NO   OCC          E(Eh)            E(eV)    Irrep
   0   1.0000    -318.173492     -8657.9409    1-A1
   1   1.0000     -88.008746     -2394.8397    1-B2
   2   1.0000     -88.008740     -2394.8396    2-A1
   3   1.0000     -88.008535     -2394.8340    2-B2
   4   1.0000     -88.008523     -2394.8337    3-A1
   5   1.0000     -38.018228     -1034.5286    4-A1
   6   1.0000     -33.521368      -912.1628    3-B2
   7   1.0000     -33.520754      -912.1461    5-A1
   8   1.0000     -33.506642      -911.7621    1-B1
   9   1.0000      -9.832459      -267.5548    6-A1
  10   1.0000      -9.832060      -267.5440    4-B2
  11   1.0000      -9.830314      -267.4964    7-A1
  12   1.0000      -9.829908      -267.4854    5-B2
  13   1.0000      -9.816889      -267.1311    8-A1
  14   1.0000      -9.815934      -267.1051    6-B2
  15   1.0000      -9.815609      -267.0963    9-A1
  16   1.0000      -9.815563      -267.0950    7-B2
  17   1.0000      -9.814472      -267.0654   10-A1
  18   1.0000      -9.814438      -267.0644    8-B2
  19   1.0000      -9.814052      -267.0539   11-A1
  20   1.0000      -9.812841      -267.0210    9-B2
  21   1.0000      -7.575444      -206.1383   10-B2
  22   1.0000      -7.575438      -206.1382   12-A1
  23   1.0000      -7.575378      -206.1365   11-B2
  24   1.0000      -7.575373      -206.1364   13-A1
  25   1.0000      -5.499482      -149.6485   12-B2
  26   1.0000      -5.499482      -149.6485   14-A1
  27   1.0000      -5.499419      -149.6468   13-B2
  28   1.0000      -5.499419      -149.6468   15-A1
  29   1.0000      -5.493483      -149.4853   14-B2
  30   1.0000      -5.493483      -149.4853   16-A1
  31   1.0000      -5.493459      -149.4846   15-B2
  32   1.0000      -5.493459      -149.4846   17-A1
  33   1.0000      -5.491089      -149.4201    1-A2
  34   1.0000      -5.491088      -149.4201    2-B1
  35   1.0000      -5.490935      -149.4159    2-A2
  36   1.0000      -5.490935      -149.4159    3-B1
  37   1.0000      -4.015456      -109.2661   18-A1
  38   1.0000      -2.536802       -69.0299   16-B2
  39   1.0000      -2.535589       -68.9969   19-A1
  40   1.0000      -2.507774       -68.2400    4-B1
  41   1.0000      -0.625751       -17.0275   20-A1
  42   1.0000      -0.617680       -16.8079   21-A1
  43   1.0000      -0.507857       -13.8195   22-A1
  44   1.0000      -0.505607       -13.7583   23-A1
  45   1.0000      -0.505466       -13.7544   17-B2
  46   1.0000      -0.501406       -13.6440   18-B2
  47   1.0000      -0.390035       -10.6134   19-B2
  48   1.0000      -0.386646       -10.5212   20-B2
  49   1.0000      -0.384378       -10.4595   24-A1
  50   1.0000      -0.376137       -10.2352   25-A1
  51   1.0000      -0.342197        -9.3117   26-A1
  52   1.0000      -0.336995        -9.1701   27-A1
  53   1.0000      -0.312858        -8.5133   21-B2
  54   1.0000      -0.307196        -8.3592   22-B2
  55   1.0000      -0.247549        -6.7361   28-A1
  56   1.0000      -0.240994        -6.5578   29-A1
  57   1.0000      -0.205668        -5.5965   30-A1
  58   1.0000      -0.202060        -5.4983   31-A1
  59   1.0000      -0.164761        -4.4834   23-B2
  60   1.0000      -0.164184        -4.4677   24-B2
  61   1.0000      -0.159256        -4.3336   25-B2
  62   1.0000      -0.156151        -4.2491   26-B2
  63   1.0000      -0.141317        -3.8454    5-B1
  64   1.0000      -0.135431        -3.6853    6-B1
  65   1.0000      -0.130424        -3.5490   32-A1
  66   1.0000      -0.116888        -3.1807   33-A1
  67   1.0000      -0.072822        -1.9816   34-A1
  68   1.0000      -0.052812        -1.4371   27-B2
  69   1.0000      -0.049076        -1.3354   28-B2
  70   1.0000      -0.048630        -1.3233   35-A1
  71   1.0000      -0.036328        -0.9885    7-B1
  72   1.0000      -0.035093        -0.9549    8-B1
  73   1.0000      -0.029142        -0.7930   36-A1
  74   1.0000      -0.027125        -0.7381    3-A2
  75   1.0000      -0.024102        -0.6559    4-A2
  76   1.0000      -0.009774        -0.2660   29-B2
  77   1.0000      -0.000177        -0.0048    5-A2
  78   1.0000       0.005222         0.1421    9-B1
  79   1.0000       0.005796         0.1577   37-A1
  80   1.0000       0.020289         0.5521   38-A1
  81   1.0000       0.024710         0.6724   39-A1
  82   1.0000       0.045091         1.2270   30-B2
  83   1.0000       0.054151         1.4735   10-B1
  84   1.0000       0.060674         1.6510    6-A2
  85   1.0000       0.062719         1.7067    7-A2
  86   1.0000       0.083742         2.2787   11-B1
  87   1.0000       0.116458         3.1690   31-B2
  88   0.0000       0.177336         4.8256   40-A1
  89   0.0000       0.178567         4.8591   41-A1
  90   0.0000       0.195217         5.3121   32-B2
  91   0.0000       0.195844         5.3292   33-B2
  92   0.0000       0.204496         5.5646   12-B1

                 SPIN DOWN ORBITALS
  NO   OCC          E(Eh)            E(eV)    Irrep
   0   1.0000    -318.173322     -8657.9362    1-A1
   1   1.0000     -88.007660     -2394.8102    1-B2
   2   1.0000     -88.007654     -2394.8100    2-A1
   3   1.0000     -88.007451     -2394.8045    2-B2
   4   1.0000     -88.007439     -2394.8042    3-A1
   5   1.0000     -38.002580     -1034.1028    4-A1
   6   1.0000     -33.506415      -911.7559    3-B2
   7   1.0000     -33.505826      -911.7399    5-A1
   8   1.0000     -33.502380      -911.6461    1-B1
   9   1.0000      -9.832438      -267.5542    6-A1
  10   1.0000      -9.832039      -267.5434    4-B2
  11   1.0000      -9.830293      -267.4959    7-A1
  12   1.0000      -9.829887      -267.4848    5-B2
  13   1.0000      -9.817037      -267.1352    8-A1
  14   1.0000      -9.816074      -267.1090    6-B2
  15   1.0000      -9.815539      -267.0944    9-A1
  16   1.0000      -9.815477      -267.0927    7-B2
  17   1.0000      -9.814396      -267.0633   10-A1
  18   1.0000      -9.814370      -267.0626    8-B2
  19   1.0000      -9.814190      -267.0577   11-A1
  20   1.0000      -9.812996      -267.0252    9-B2
  21   1.0000      -7.574694      -206.1179   10-B2
  22   1.0000      -7.574688      -206.1177   12-A1
  23   1.0000      -7.574626      -206.1161   11-B2
  24   1.0000      -7.574620      -206.1159   13-A1
  25   1.0000      -5.498573      -149.6238   12-B2
  26   1.0000      -5.498573      -149.6238   14-A1
  27   1.0000      -5.498508      -149.6220   13-B2
  28   1.0000      -5.498507      -149.6220   15-A1
  29   1.0000      -5.491153      -149.4219   14-B2
  30   1.0000      -5.491153      -149.4219   16-A1
  31   1.0000      -5.491116      -149.4209   15-B2
  32   1.0000      -5.491116      -149.4209   17-A1
  33   1.0000      -5.490266      -149.3977    1-A2
  34   1.0000      -5.490266      -149.3977    2-B1
  35   1.0000      -5.490113      -149.3936    2-A2
  36   1.0000      -5.490113      -149.3936    3-B1
  37   1.0000      -3.982550      -108.3707   18-A1
  38   1.0000      -2.496247       -67.9263    4-B1
  39   1.0000      -2.495711       -67.9117   16-B2
  40   1.0000      -2.494498       -67.8787   19-A1
  41   1.0000      -0.625717       -17.0266   20-A1
  42   1.0000      -0.617604       -16.8059   21-A1
  43   1.0000      -0.507441       -13.8082   22-A1
  44   1.0000      -0.505085       -13.7441   23-A1
  45   1.0000      -0.504990       -13.7415   17-B2
  46   1.0000      -0.500885       -13.6298   18-B2
  47   1.0000      -0.386253       -10.5105   19-B2
  48   1.0000      -0.383048       -10.4233   20-B2
  49   1.0000      -0.380412       -10.3515   24-A1
  50   1.0000      -0.372565       -10.1380   25-A1
  51   1.0000      -0.340687        -9.2706   26-A1
  52   1.0000      -0.335258        -9.1228   27-A1
  53   1.0000      -0.309996        -8.4354   21-B2
  54   1.0000      -0.303783        -8.2664   22-B2
  55   1.0000      -0.246825        -6.7165   28-A1
  56   1.0000      -0.240101        -6.5335   29-A1
  57   1.0000      -0.205421        -5.5898   30-A1
  58   1.0000      -0.201739        -5.4896   31-A1
  59   1.0000      -0.164257        -4.4697   23-B2
  60   1.0000      -0.163801        -4.4572   24-B2
  61   1.0000      -0.158777        -4.3205   25-B2
  62   1.0000      -0.155206        -4.2234   26-B2
  63   1.0000      -0.141363        -3.8467    5-B1
  64   1.0000      -0.135453        -3.6859    6-B1
  65   1.0000      -0.129488        -3.5235   32-A1
  66   1.0000      -0.116193        -3.1618   33-A1
  67   1.0000      -0.071330        -1.9410   34-A1
  68   1.0000      -0.047225        -1.2851   35-A1
  69   1.0000      -0.047173        -1.2836   27-B2
  70   1.0000      -0.035624        -0.9694    7-B1
  71   1.0000      -0.034411        -0.9364    8-B1
  72   1.0000      -0.027337        -0.7439   28-B2
  73   1.0000      -0.026428        -0.7191    3-A2
  74   1.0000      -0.023602        -0.6422    4-A2
  75   1.0000      -0.022519        -0.6128   36-A1
  76   1.0000       0.008778         0.2389   29-B2
  77   1.0000       0.010947         0.2979    5-A2
  78   1.0000       0.015781         0.4294   37-A1
  79   1.0000       0.017252         0.4694    9-B1
  80   1.0000       0.027691         0.7535   38-A1
  81   1.0000       0.041540         1.1304   39-A1
  82   1.0000       0.052883         1.4390   30-B2
  83   1.0000       0.056561         1.5391   10-B1
  84   1.0000       0.064259         1.7486    6-A2
  85   1.0000       0.069033         1.8785    7-A2
  86   1.0000       0.089068         2.4237   11-B1
  87   0.0000       0.148533         4.0418   31-B2
  88   0.0000       0.178873         4.8674   40-A1
  89   0.0000       0.180053         4.8995   41-A1
  90   0.0000       0.197938         5.3862   32-B2
  91   0.0000       0.198476         5.4008   33-B2

MULLIKEN ATOMIC CHARGES AND SPIN POPULATIONS
--------------------------------------------
   0 Cu:    0.161396    0.366342
   1 S :   -0.500609    0.166906
   2 C :    0.118199   -0.011927
   3 S :   -0.489959    0.166339
   4 C :    0.098097   -0.011119
   5 S :   -0.500609    0.166906
   6 C :    0.118199   -0.011927
   7 S :   -0.489959    0.166339
   8 C :    0.098097   -0.011119
   9 C :   -0.077979    0.000801
  10 C :   -0.077979    0.000801
  11 C :   -0.167187   -0.001109
  12 H :    0.064209    0.002347
  13 C :   -0.167187   -0.001109
  14 H :    0.064209    0.002347
  15 H :    0.032101    0.000769
  16 H :    0.032101    0.000769
  17 C :   -0.079360    0.001931
  18 C :   -0.079360    0.001931
  19 C :   -0.170999   -0.001075
  20 H :    0.060558    0.002273
  21 C :   -0.170999   -0.001075
  22 H :    0.060558    0.002273
  23 H :    0.032232    0.000693
  24 H :    0.032232    0.000693
Sum of atomic charges         :   -2.0000000

LOEWDIN ATOMIC CHARGES AND SPIN POPULATIONS
-------------------------------------------
   0 Cu:   -0.937287    0.436440
   1 S :    0.026183    0.126061
   2 C :   -0.027456   -0.001816
   3 S :    0.019150    0.126078
   4 C :   -0.027190   -0.000674
   5 S :    0.026183    0.126061
   6 C :   -0.027456   -0.001816
   7 S :    0.019150    0.126078
   8 C :   -0.027190   -0.000674
   9 C :    0.289260    0.004345
  10 C :    0.289260    0.004345
  11 C :    0.321004   -0.000128
  12 H :   -0.455979    0.011066
  13 C :    0.321004   -0.000128
  14 H :   -0.455979    0.011066
  15 H :   -0.413536    0.000019
  16 H :   -0.413536    0.000019
  17 C :    0.284534    0.004638
  18 C :    0.284534    0.004638
  19 C :    0.322577   -0.000062
  20 H :   -0.457456    0.012274
  21 C :    0.322577   -0.000062
  22 H :   -0.457456    0.012274
  23 H :   -0.412448   -0.000022
  24 H :   -0.412448   -0.000022

  Mayer bond orders larger than 0.100000
B(  0-Cu,  1-S ) :   0.7046 B(  0-Cu,  3-S ) :   0.7025 B(  0-Cu,  5-S ) :   0.7046
B(  0-Cu,  7-S ) :   0.7025 B(  1-S ,  2-C ) :   1.0699 B(  2-C ,  6-C ) :   1.3136
B(  2-C , 17-C ) :   1.3053 B(  3-S ,  4-C ) :   1.0910 B(  4-C ,  8-C ) :   1.3008
B(  4-C , 10-C ) :   1.3095 B(  5-S ,  6-C ) :   1.0699 B(  6-C , 18-C ) :   1.3053
B(  7-S ,  8-C ) :   1.0910 B(  8-C ,  9-C ) :   1.3095 B(  9-C , 13-C ) :   1.3835
B(  9-C , 14-H ) :   0.9570 B( 10-C , 11-C ) :   1.3835 B( 10-C , 12-H ) :   0.9570
B( 11-C , 13-C ) :   1.3387 B( 11-C , 15-H ) :   0.9909 B( 13-C , 16-H ) :   0.9909
B( 17-C , 19-C ) :   1.3888 B( 17-C , 20-H ) :   0.9555 B( 18-C , 21-C ) :   1.3888
B( 18-C , 22-H ) :   0.9555 B( 19-C , 21-C ) :   1.3383 B( 19-C , 23-H ) :   0.9914
B( 21-C , 24-H ) :   0.9914

FINAL SINGLE POINT ENERGY     -3686.824293600645

DIPOLE MOMENT
-------------
                                X             Y             Z
Electronic contribution:      0.00000       0.00000       0.19348
Nuclear contribution   :      0.00000       0.00000      -0.11433
                        -----------------------------------------
Total Dipole Moment    :      0.00000       0.00000       0.07915
                        -----------------------------------------
Magnitude (a.u.)       :      0.07915
Magnitude (Debye)      :      0.20119

Rotational constants in cm-1:     0.033824     0.004808     0.004209
Rotational constants in MHz :  1014.032304   144.125835   126.190240

                             ****ORCA TERMINATED NORMALLY****
TOTAL RUN TIME: 0 days 6 hours 39 minutes 22 seconds 714 msec
