                         Program Version 5.0.4 -  RELEASE  -
|  1> ! RIJCOSX nofrozencore ReducedPop printbasis
|  2> ! M06L ano-rcc-dzp autoaux
|  3>
|  4> %maxcore 5000
|  5> %basis
|  6> PCDTrimBas overlap
|  7> PCDTrimAuxJ Coulomb
|  8> PCDTrimAuxJK Coulomb
|  9> PCDTrimAuxC Coulomb
| 10> PCDThresh -1
| 11> end
| 12>
| 13> %basis
| 14> newgto Cu "ano-rcc-tzp" end
| 15> newgto S "ano-rcc-tzp" end
| 16> end
| 17>
| 18> %pal
| 19> nprocs 12
| 20> end
| 21>
| 22> % sym SymThresh 1e-2 end
| 23> * xyz -2 2
| 24> Cu -3.5725932409947398e-06 -7.834348856919043e-07 -1.6195083557300999e-06
| 25> S -1.0201844873023556 1.358054651383202 1.5770618313252907
| 26> C -1.3179446136550563 0.3047844290275493 2.935061895553307
| 27> S 0.27581752930951725 1.7838219977843828 -1.4540018985122156
| 28> C 0.9866255750024099 1.0786176234095566 -2.8823849649376267
| 29> S -0.275496889066138 -1.7837516845033918 1.4541472493871423
| 30> C -0.9898775280000253 -1.0793307450142577 2.8809108074568233
| 31> S 1.0205051275457349 -1.357984338102211 -1.576916480450364
| 32> C 1.3146899812125101 -0.30549813820841465 -2.9365372676653774
| 33> C 2.0745847474861545 -0.7678590491678743 -4.0302353842348735
| 34> C 1.4393741439684384 1.911998622720318 -3.9253991731165034
| 35> C 1.9708396974082811 1.3828843293146034 -5.099693607189429
| 36> H 1.3365593545783179 2.9990289924623252 -3.8060086756838323
| 37> C 2.2918196893622547 0.028570249229390467 -5.152688735570922
| 38> H 2.47193737979969 -1.7911875668592356 -3.993424254747914
| 39> H 2.223464272922904 2.0450725546682347 -5.922999151067318
| 40> H 2.799964905119518 -0.3872263848141111 -6.0181628591442955
| 41> C -2.0715646268230876 0.7685213747916673 4.03160336009306
| 42> C -1.4363708724271889 -1.9113400771268345 3.9267616883460783
| 43> C -2.2932683759214783 -0.028887932075538535 5.152032024932674
| 44> H -2.4616893960878965 1.7934348498288428 3.9980698144663256
| 45> C -1.9722642689631278 -1.3831967239752732 5.099047828232582
| 46> H -1.3262912146815053 -2.996777332028787 3.8106644611547837
| 47> H -2.8003259675048233 0.3871482302267436 6.01799932684048
| 48> H -2.2238083654903145 -2.0451469879398956 5.922843311428192
| 49> *
| 50>
| 51> % eprnmr
| 52> gtensor true
| 53> Nuclei = all H {aiso,adip,aorb,fgrad,rho}
| 54> Nuclei = all Cu {aiso,adip,aorb,fgrad,rho}
| 55> end
| 56>
| 57>                          ****END OF INPUT****

CARTESIAN COORDINATES (ANGSTROEM)
---------------------------------
  Cu     0.000000    0.000000    0.000000
  S      1.519661   -0.672823    1.615597
  C      2.916228   -1.197393    0.711747
  S     -1.519661    0.672823    1.615597
  C     -2.916228    1.197393    0.711747
  S      1.519661   -0.672823   -1.615597
  C      2.916228   -1.197393   -0.711747
  S     -1.519661    0.672823   -1.615597
  C     -2.916228    1.197393   -0.711747
  C     -3.989591    1.822141   -1.378053
  C     -3.989591    1.822141    1.378053
  C     -5.139558    2.214350    0.696420
  H     -3.913737    1.969419    2.463249
  C     -5.139558    2.214350   -0.696420
  H     -3.913737    1.969419   -2.463249
  H     -5.986581    2.608545    1.250749
  H     -5.986581    2.608545   -1.250749
  C      3.989591   -1.822141    1.378053
  C      3.989591   -1.822141   -1.378053
  C      5.139558   -2.214350    0.696420
  H      3.913737   -1.969419    2.463249
  C      5.139558   -2.214350   -0.696420
  H      3.913737   -1.969419   -2.463249
  H      5.986581   -2.608545    1.250749
  H      5.986581   -2.608545   -1.250749

 Total Charge           Charge          ....   -2
 Multiplicity           Mult            ....    2
 Number of Electrons    NEL             ....  175
 Basis Dimension        Dim             ....  475

ORBITAL ENERGIES
----------------
                 SPIN UP ORBITALS
  NO   OCC          E(Eh)            E(eV)    Irrep
   0   1.0000    -318.181340     -8658.1544    1-Ag
   1   1.0000     -88.014637     -2395.0000    1-Bu
   2   1.0000     -88.014625     -2394.9997    1-Bg
   3   1.0000     -88.014621     -2394.9996    1-Au
   4   1.0000     -88.014588     -2394.9987    2-Ag
   5   1.0000     -38.026575     -1034.7557    3-Ag
   6   1.0000     -33.529709      -912.3898    2-Au
   7   1.0000     -33.528864      -912.3668    2-Bu
   8   1.0000     -33.515097      -911.9922    3-Bu
   9   1.0000      -9.833822      -267.5919    4-Bu
  10   1.0000      -9.833816      -267.5917    4-Ag
  11   1.0000      -9.833491      -267.5829    2-Bg
  12   1.0000      -9.833488      -267.5828    3-Au
  13   1.0000      -9.824282      -267.3323    5-Bu
  14   1.0000      -9.824282      -267.3323    5-Ag
  15   1.0000      -9.823853      -267.3206    3-Bg
  16   1.0000      -9.823853      -267.3206    4-Au
  17   1.0000      -9.818576      -267.1770    4-Bg
  18   1.0000      -9.818576      -267.1770    5-Au
  19   1.0000      -9.818572      -267.1769    6-Bu
  20   1.0000      -9.818571      -267.1769    6-Ag
  21   1.0000      -7.583263      -206.3511    5-Bg
  22   1.0000      -7.583263      -206.3511    6-Au
  23   1.0000      -7.583259      -206.3510    7-Bu
  24   1.0000      -7.583247      -206.3506    7-Ag
  25   1.0000      -5.506495      -149.8393    6-Bg
  26   1.0000      -5.506494      -149.8393    7-Au
  27   1.0000      -5.506494      -149.8393    8-Bu
  28   1.0000      -5.506494      -149.8393    8-Ag
  29   1.0000      -5.501154      -149.6940    7-Bg
  30   1.0000      -5.501154      -149.6940    8-Au
  31   1.0000      -5.501154      -149.6940    9-Bu
  32   1.0000      -5.501154      -149.6940    9-Ag
  33   1.0000      -5.499329      -149.6444    9-Au
  34   1.0000      -5.499329      -149.6443    8-Bg
  35   1.0000      -5.499329      -149.6443   10-Ag
  36   1.0000      -5.499329      -149.6443   10-Bu
  37   1.0000      -4.024177      -109.5034   11-Ag
  38   1.0000      -2.545605       -69.2694   10-Au
  39   1.0000      -2.544075       -69.2278   11-Bu
  40   1.0000      -2.516667       -68.4820   12-Bu
  41   1.0000      -0.588526       -16.0146   12-Ag
  42   1.0000      -0.588406       -16.0113   13-Bu
  43   1.0000      -0.504383       -13.7250   13-Ag
  44   1.0000      -0.503284       -13.6951   14-Bu
  45   1.0000      -0.488150       -13.2832   11-Au
  46   1.0000      -0.487888       -13.2761    9-Bg
  47   1.0000      -0.409131       -11.1330   12-Au
  48   1.0000      -0.406522       -11.0620   10-Bg
  49   1.0000      -0.387148       -10.5348   14-Ag
  50   1.0000      -0.380472       -10.3532   15-Bu
  51   1.0000      -0.320967        -8.7339   15-Ag
  52   1.0000      -0.318286        -8.6610   16-Bu
  53   1.0000      -0.298577        -8.1247   13-Au
  54   1.0000      -0.295074        -8.0294   11-Bg
  55   1.0000      -0.232205        -6.3186   16-Ag
  56   1.0000      -0.227038        -6.1780   17-Bu
  57   1.0000      -0.188727        -5.1355   17-Ag
  58   1.0000      -0.187752        -5.1090   18-Bu
  59   1.0000      -0.177707        -4.8357   14-Au
  60   1.0000      -0.174723        -4.7544   12-Bg
  61   1.0000      -0.145855        -3.9689   15-Au
  62   1.0000      -0.142786        -3.8854   13-Bg
  63   1.0000      -0.131292        -3.5726   18-Ag
  64   1.0000      -0.120127        -3.2688   19-Bu
  65   1.0000      -0.116960        -3.1827   19-Ag
  66   1.0000      -0.110430        -3.0049   20-Bu
  67   1.0000      -0.086359        -2.3500   20-Ag
  68   1.0000      -0.068512        -1.8643   16-Au
  69   1.0000      -0.064648        -1.7592   14-Bg
  70   1.0000      -0.062669        -1.7053   21-Bu
  71   1.0000      -0.039672        -1.0795   21-Ag
  72   1.0000      -0.037154        -1.0110   22-Bu
  73   1.0000      -0.031621        -0.8605   15-Bg
  74   1.0000      -0.028255        -0.7689   22-Ag
  75   1.0000      -0.024352        -0.6627   16-Bg
  76   1.0000      -0.016879        -0.4593   17-Au
  77   1.0000      -0.001722        -0.0469   17-Bg
  78   1.0000      -0.000783        -0.0213   23-Ag
  79   1.0000       0.001472         0.0400   24-Ag
  80   1.0000       0.018419         0.5012   25-Ag
  81   1.0000       0.019200         0.5225   23-Bu
  82   1.0000       0.034416         0.9365   18-Au
  83   1.0000       0.050931         1.3859   19-Au
  84   1.0000       0.052825         1.4375   18-Bg
  85   1.0000       0.062462         1.6997   24-Bu
  86   1.0000       0.087335         2.3765   26-Ag
  87   1.0000       0.105183         2.8622   19-Bg
  88   0.0000       0.180790         4.9196   27-Ag
  89   0.0000       0.180857         4.9214   25-Bu
  90   0.0000       0.196775         5.3545   20-Bg
  91   0.0000       0.196987         5.3603   20-Au
  92   0.0000       0.198872         5.4116   26-Bu

                 SPIN DOWN ORBITALS
  NO   OCC          E(Eh)            E(eV)    Irrep
   0   1.0000    -318.181166     -8658.1497    1-Ag
   1   1.0000     -88.013567     -2394.9709    1-Bu
   2   1.0000     -88.013555     -2394.9706    1-Bg
   3   1.0000     -88.013552     -2394.9705    1-Au
   4   1.0000     -88.013518     -2394.9696    2-Ag
   5   1.0000     -38.010695     -1034.3236    3-Ag
   6   1.0000     -33.514539      -911.9770    2-Au
   7   1.0000     -33.513727      -911.9549    2-Bu
   8   1.0000     -33.510768      -911.8744    3-Bu
   9   1.0000      -9.833938      -267.5951    4-Bu
  10   1.0000      -9.833932      -267.5949    4-Ag
  11   1.0000      -9.833606      -267.5860    2-Bg
  12   1.0000      -9.833604      -267.5860    3-Au
  13   1.0000      -9.824258      -267.3316    5-Bu
  14   1.0000      -9.824257      -267.3316    5-Ag
  15   1.0000      -9.823828      -267.3200    3-Bg
  16   1.0000      -9.823828      -267.3200    4-Au
  17   1.0000      -9.818517      -267.1754    4-Bg
  18   1.0000      -9.818516      -267.1754    5-Au
  19   1.0000      -9.818512      -267.1753    6-Bu
  20   1.0000      -9.818511      -267.1753    6-Ag
  21   1.0000      -7.582531      -206.3312    6-Au
  22   1.0000      -7.582531      -206.3312    5-Bg
  23   1.0000      -7.582528      -206.3311    7-Bu
  24   1.0000      -7.582515      -206.3307    7-Ag
  25   1.0000      -5.505565      -149.8140    6-Bg
  26   1.0000      -5.505565      -149.8140    7-Au
  27   1.0000      -5.505564      -149.8140    8-Bu
  28   1.0000      -5.505564      -149.8140    8-Ag
  29   1.0000      -5.498912      -149.6330    7-Bg
  30   1.0000      -5.498912      -149.6330    8-Au
  31   1.0000      -5.498912      -149.6330    9-Bu
  32   1.0000      -5.498911      -149.6330    9-Ag
  33   1.0000      -5.498515      -149.6222    9-Au
  34   1.0000      -5.498515      -149.6222    8-Bg
  35   1.0000      -5.498515      -149.6222   10-Ag
  36   1.0000      -5.498515      -149.6222   10-Bu
  37   1.0000      -3.990426      -108.5850   11-Ag
  38   1.0000      -2.504937       -68.1628   11-Bu
  39   1.0000      -2.503518       -68.1242   10-Au
  40   1.0000      -2.501989       -68.0826   12-Bu
  41   1.0000      -0.588158       -16.0046   12-Ag
  42   1.0000      -0.588049       -16.0016   13-Bu
  43   1.0000      -0.503057       -13.6889   13-Ag
  44   1.0000      -0.502030       -13.6609   14-Bu
  45   1.0000      -0.487083       -13.2542   11-Au
  46   1.0000      -0.486848       -13.2478    9-Bg
  47   1.0000      -0.405161       -11.0250   12-Au
  48   1.0000      -0.402454       -10.9513   10-Bg
  49   1.0000      -0.383922       -10.4470   14-Ag
  50   1.0000      -0.377309       -10.2671   15-Bu
  51   1.0000      -0.319772        -8.7014   15-Ag
  52   1.0000      -0.316774        -8.6199   16-Bu
  53   1.0000      -0.296794        -8.0762   13-Au
  54   1.0000      -0.292863        -7.9692   11-Bg
  55   1.0000      -0.231640        -6.3032   16-Ag
  56   1.0000      -0.226346        -6.1592   17-Bu
  57   1.0000      -0.187733        -5.1085   17-Ag
  58   1.0000      -0.186849        -5.0844   18-Bu
  59   1.0000      -0.177180        -4.8213   14-Au
  60   1.0000      -0.173852        -4.7308   12-Bg
  61   1.0000      -0.145164        -3.9501   15-Au
  62   1.0000      -0.141223        -3.8429   13-Bg
  63   1.0000      -0.130129        -3.5410   18-Ag
  64   1.0000      -0.119774        -3.2592   19-Bu
  65   1.0000      -0.116605        -3.1730   19-Ag
  66   1.0000      -0.109710        -2.9854   20-Bu
  67   1.0000      -0.085043        -2.3141   20-Ag
  68   1.0000      -0.067041        -1.8243   16-Au
  69   1.0000      -0.060994        -1.6597   21-Bu
  70   1.0000      -0.050104        -1.3634   14-Bg
  71   1.0000      -0.037360        -1.0166   21-Ag
  72   1.0000      -0.036221        -0.9856   22-Bu
  73   1.0000      -0.021650        -0.5891   22-Ag
  74   1.0000      -0.021032        -0.5723   15-Bg
  75   1.0000      -0.016023        -0.4360   17-Au
  76   1.0000      -0.002773        -0.0755   16-Bg
  77   1.0000       0.007803         0.2123   17-Bg
  78   1.0000       0.010030         0.2729   23-Ag
  79   1.0000       0.013773         0.3748   24-Ag
  80   1.0000       0.026018         0.7080   23-Bu
  81   1.0000       0.034160         0.9295   25-Ag
  82   1.0000       0.042618         1.1597   18-Au
  83   1.0000       0.053838         1.4650   19-Au
  84   1.0000       0.058348         1.5877   18-Bg
  85   1.0000       0.064311         1.7500   24-Bu
  86   1.0000       0.091513         2.4902   26-Ag
  87   0.0000       0.138215         3.7610   19-Bg
  88   0.0000       0.181943         4.9509   27-Ag
  89   0.0000       0.181973         4.9517   25-Bu
  90   0.0000       0.198734         5.4078   20-Bg
  91   0.0000       0.198934         5.4133   26-Bu

MULLIKEN ATOMIC CHARGES AND SPIN POPULATIONS
--------------------------------------------
   0 Cu:    0.142636    0.375471
   1 S :   -0.419268    0.162987
   2 C :    0.020100   -0.007618
   3 S :   -0.419268    0.162987
   4 C :    0.020100   -0.007618
   5 S :   -0.419268    0.162987
   6 C :    0.020100   -0.007618
   7 S :   -0.419268    0.162987
   8 C :    0.020100   -0.007618
   9 C :   -0.085057   -0.001529
  10 C :   -0.085057   -0.001529
  11 C :   -0.136667   -0.000641
  12 H :    0.051722    0.001880
  13 C :   -0.136667   -0.000641
  14 H :    0.051722    0.001880
  15 H :    0.033511    0.001053
  16 H :    0.033511    0.001053
  17 C :   -0.085057   -0.001529
  18 C :   -0.085057   -0.001529
  19 C :   -0.136667   -0.000641
  20 H :    0.051722    0.001880
  21 C :   -0.136667   -0.000641
  22 H :    0.051722    0.001880
  23 H :    0.033511    0.001053
  24 H :    0.033511    0.001053
Sum of atomic charges         :   -2.0000000

LOEWDIN ATOMIC CHARGES AND SPIN POPULATIONS
-------------------------------------------
   0 Cu:   -0.895251    0.442281
   1 S :    0.005941    0.124141
   2 C :   -0.038606    0.005028
   3 S :    0.005941    0.124141
   4 C :   -0.038606    0.005028
   5 S :    0.005941    0.124141
   6 C :   -0.038606    0.005028
   7 S :    0.005941    0.124141
   8 C :   -0.038606    0.005028
   9 C :    0.302567    0.003936
  10 C :    0.302567    0.003936
  11 C :    0.309226    0.000025
  12 H :   -0.434795    0.006071
  13 C :    0.309226    0.000025
  14 H :   -0.434795    0.006071
  15 H :   -0.420520    0.000228
  16 H :   -0.420520    0.000228
  17 C :    0.302567    0.003936
  18 C :    0.302567    0.003936
  19 C :    0.309226    0.000025
  20 H :   -0.434795    0.006071
  21 C :    0.309226    0.000025
  22 H :   -0.434795    0.006071
  23 H :   -0.420520    0.000228
  24 H :   -0.420520    0.000228

  Mayer bond orders larger than 0.100000
B(  0-Cu,  1-S ) :   0.7007 B(  0-Cu,  3-S ) :   0.7007 B(  0-Cu,  5-S ) :   0.7007
B(  0-Cu,  7-S ) :   0.7007 B(  1-S ,  2-C ) :   1.1838 B(  2-C ,  6-C ) :   1.2472
B(  2-C , 17-C ) :   1.3164 B(  3-S ,  4-C ) :   1.1838 B(  4-C ,  8-C ) :   1.2472
B(  4-C , 10-C ) :   1.3164 B(  5-S ,  6-C ) :   1.1838 B(  6-C , 18-C ) :   1.3164
B(  7-S ,  8-C ) :   1.1838 B(  8-C ,  9-C ) :   1.3164 B(  9-C , 13-C ) :   1.3601
B(  9-C , 14-H ) :   0.9768 B( 10-C , 11-C ) :   1.3601 B( 10-C , 12-H ) :   0.9768
B( 11-C , 13-C ) :   1.3415 B( 11-C , 15-H ) :   0.9878 B( 13-C , 16-H ) :   0.9878
B( 17-C , 19-C ) :   1.3601 B( 17-C , 20-H ) :   0.9768 B( 18-C , 21-C ) :   1.3601
B( 18-C , 22-H ) :   0.9768 B( 19-C , 21-C ) :   1.3415 B( 19-C , 23-H ) :   0.9878
B( 21-C , 24-H ) :   0.9878

FINAL SINGLE POINT ENERGY     -3686.918130289857

DIPOLE MOMENT
-------------
                                X             Y             Z
Electronic contribution:      0.00000      -0.00000       0.00000
Nuclear contribution   :      0.00000       0.00000       0.00000
                        -----------------------------------------
Total Dipole Moment    :      0.00000      -0.00000       0.00000
                        -----------------------------------------
Magnitude (a.u.)       :      0.00000
Magnitude (Debye)      :      0.00000

Rotational constants in cm-1:     0.033372     0.004803     0.004200
Rotational constants in MHz :  1000.477537   143.986973   125.919615

                             ****ORCA TERMINATED NORMALLY****
TOTAL RUN TIME: 0 days 6 hours 48 minutes 41 seconds 838 msec
