                         Program Version 5.0.4 -  RELEASE  -
|  1> ! RIJCOSX nofrozencore ReducedPop printbasis
|  2> ! M06L ano-rcc-dzp autoaux
|  3>
|  4> %maxcore 5000
|  5> %basis
|  6> PCDTrimBas overlap
|  7> PCDTrimAuxJ Coulomb
|  8> PCDTrimAuxJK Coulomb
|  9> PCDTrimAuxC Coulomb
| 10> PCDThresh -1
| 11> end
| 12>
| 13> %basis
| 14> newgto Cu "ano-rcc-tzp" end
| 15> newgto S "ano-rcc-tzp" end
| 16> end
| 17>
| 18> %pal
| 19> nprocs 12
| 20> end
| 21>
| 22> % sym SymThresh 1e-2 end
| 23> * xyz -2 2
| 24> Cu -2.357516854729562e-05 3.372414974574337e-05 3.398371892382116e-05
| 25> S -0.07720128276966708 2.0996894976307767 0.9772180550167573
| 26> C -1.4087710033498961 2.0425357495257326 2.0426324979043295
| 27> S 1.8539374024744375 0.5851633046548053 -1.2632856418291958
| 28> C 2.220466283156566 -0.9016396134940372 -2.2106134983999777
| 29> S -1.8529939369266648 -0.5798869493678072 1.2648099530328332
| 30> C -2.220842024499602 0.8153189396092569 2.173345333721253
| 31> S 0.07301247781828858 -2.102432045815023 -0.9749820924642101
| 32> C 1.4823874635091163 -2.0111257855176374 -2.089236987458836
| 33> C 1.7185059850198094 -3.111218606437564 -2.7614475563649212
| 34> C 3.247827774604278 -0.8052566121754696 -3.009864531237695
| 35> C 3.6566174985240423 -1.9926163194177733 -3.8614465742142214
| 36> H 4.050243349501665 -0.06370706562606657 -3.344084854622539
| 37> C 2.8908489554627326 -3.1561015489863165 -3.740903685802697
| 38> H 1.3252653412379118 -4.176268557679531 -2.9030823911284176
| 39> H 4.493872934301515 -2.045229373913105 -4.569896862129856
| 40> H 3.174273727269398 -4.022155366325469 -4.34997041733843
| 41> C -1.8300114595035795 3.1726687284156405 2.8794981599086094
| 42> C -3.33898250723443 0.8975670552102486 3.124685531820552
| 43> C -2.8478914561478827 3.123445512697951 3.6915146045443086
| 44> H -1.0936660420804294 3.9623206921013217 2.620315527033115
| 45> C -3.615137687259789 1.9647562732830741 3.8153551474967244
| 46> H -3.7928841675690808 -0.11438070754767385 3.0558357904072158
| 47> H -3.051089408284605 4.026719496122992 4.251093472121437
| 48> H -4.465345430143675 1.8932673897272962 4.480388630917099
| 49> *
| 50>
| 51> % eprnmr
| 52> gtensor true
| 53> Nuclei = all H {aiso,adip,aorb,fgrad,rho}
| 54> Nuclei = all Cu {aiso,adip,aorb,fgrad,rho}
| 55> end
| 56>
| 57>                          ****END OF INPUT****

CARTESIAN COORDINATES (ANGSTROEM)
---------------------------------
  Cu    -0.000035    0.000040    0.000000
  S     -0.390869    2.284038    0.000000
  C     -2.089878    2.441586    0.000000
  S      2.295233    0.327562    0.000000
  C      2.971790   -1.341158    0.000000
  S     -2.294757   -0.322011    0.000000
  C     -2.960270    1.247843    0.000000
  S      0.385881   -2.286315    0.000000
  C      2.179881   -2.419737    0.000000
  C      2.635502   -3.648653    0.000000
  C      4.275377   -1.406152    0.000000
  C      4.964479   -2.757915    0.000000
  H      5.200910   -0.736184    0.000000
  C      4.144582   -3.890346    0.000000
  H      2.279469   -4.735975    0.000000
  H      6.045080   -2.952765    0.000000
  H      4.628308   -4.873885    0.000000
  C     -2.786985    3.733496    0.000000
  C     -4.405062    1.521025    0.000000
  C     -4.084974    3.847943    0.000000
  H     -1.952835    4.466383    0.000000
  C     -4.907432    2.720943    0.000000
  H     -4.846240    0.501140    0.000000
  H     -4.471031    4.858527    0.000000
  H     -5.987384    2.783681    0.000000

 Total Charge           Charge          ....   -2
 Multiplicity           Mult            ....    2
 Number of Electrons    NEL             ....  175
 Basis Dimension        Dim             ....  475

ORBITAL ENERGIES
----------------
                 SPIN UP ORBITALS
  NO   OCC          E(Eh)            E(eV)    Irrep
   0   1.0000    -318.180797     -8658.1397    1-A'
   1   1.0000     -88.014902     -2395.0072    2-A'
   2   1.0000     -88.014863     -2395.0062    3-A'
   3   1.0000     -88.013060     -2394.9571    4-A'
   4   1.0000     -88.012854     -2394.9515    5-A'
   5   1.0000     -38.025962     -1034.7390    6-A'
   6   1.0000     -33.529110      -912.3735    7-A'
   7   1.0000     -33.528288      -912.3511    8-A'
   8   1.0000     -33.514451      -911.9746    1-A"
   9   1.0000      -9.836858      -267.6745    9-A'
  10   1.0000      -9.836419      -267.6626   10-A'
  11   1.0000      -9.836207      -267.6568   11-A'
  12   1.0000      -9.835398      -267.6348   12-A'
  13   1.0000      -9.833853      -267.5927   13-A'
  14   1.0000      -9.833268      -267.5768   14-A'
  15   1.0000      -9.827329      -267.4152   15-A'
  16   1.0000      -9.827046      -267.4075   16-A'
  17   1.0000      -9.814522      -267.0667   17-A'
  18   1.0000      -9.814102      -267.0553   18-A'
  19   1.0000      -9.810986      -266.9705   19-A'
  20   1.0000      -9.810967      -266.9700   20-A'
  21   1.0000      -7.582852      -206.3399   21-A'
  22   1.0000      -7.582810      -206.3387   22-A'
  23   1.0000      -7.582382      -206.3271   23-A'
  24   1.0000      -7.582143      -206.3206   24-A'
  25   1.0000      -5.506655      -149.8437   25-A'
  26   1.0000      -5.506619      -149.8427   26-A'
  27   1.0000      -5.505235      -149.8051   27-A'
  28   1.0000      -5.505005      -149.7988   28-A'
  29   1.0000      -5.500834      -149.6853   29-A'
  30   1.0000      -5.500789      -149.6841   30-A'
  31   1.0000      -5.500204      -149.6681   31-A'
  32   1.0000      -5.499972      -149.6619   32-A'
  33   1.0000      -5.498680      -149.6267    2-A"
  34   1.0000      -5.498508      -149.6220    3-A"
  35   1.0000      -5.498464      -149.6208    4-A"
  36   1.0000      -5.498435      -149.6200    5-A"
  37   1.0000      -4.023540      -109.4861   33-A'
  38   1.0000      -2.544981       -69.2525   34-A'
  39   1.0000      -2.543494       -69.2120   35-A'
  40   1.0000      -2.515959       -68.4627    6-A"
  41   1.0000      -0.604855       -16.4589   36-A'
  42   1.0000      -0.587705       -15.9923   37-A'
  43   1.0000      -0.503764       -13.7081   38-A'
  44   1.0000      -0.502514       -13.6741   39-A'
  45   1.0000      -0.496176       -13.5016   40-A'
  46   1.0000      -0.491249       -13.3676   41-A'
  47   1.0000      -0.419943       -11.4272   42-A'
  48   1.0000      -0.393157       -10.6984   43-A'
  49   1.0000      -0.392397       -10.6777   44-A'
  50   1.0000      -0.375442       -10.2163   45-A'
  51   1.0000      -0.336292        -9.1510   46-A'
  52   1.0000      -0.305716        -8.3190   47-A'
  53   1.0000      -0.305105        -8.3023   48-A'
  54   1.0000      -0.297187        -8.0869   49-A'
  55   1.0000      -0.234040        -6.3686   50-A'
  56   1.0000      -0.225639        -6.1399   51-A'
  57   1.0000      -0.212743        -5.7890   52-A'
  58   1.0000      -0.196086        -5.3358   53-A'
  59   1.0000      -0.191926        -5.2226   54-A'
  60   1.0000      -0.154206        -4.1962   55-A'
  61   1.0000      -0.152820        -4.1584   56-A'
  62   1.0000      -0.134487        -3.6596   57-A'
  63   1.0000      -0.130183        -3.5425    7-A"
  64   1.0000      -0.124851        -3.3974   58-A'
  65   1.0000      -0.114487        -3.1154    8-A"
  66   1.0000      -0.103471        -2.8156   59-A'
  67   1.0000      -0.074217        -2.0195   60-A'
  68   1.0000      -0.064179        -1.7464   61-A'
  69   1.0000      -0.055430        -1.5083   62-A'
  70   1.0000      -0.053160        -1.4466   63-A'
  71   1.0000      -0.039644        -1.0788    9-A"
  72   1.0000      -0.035628        -0.9695   10-A"
  73   1.0000      -0.028293        -0.7699   11-A"
  74   1.0000      -0.027954        -0.7607   64-A'
  75   1.0000      -0.025773        -0.7013   65-A'
  76   1.0000      -0.021479        -0.5845   12-A"
  77   1.0000      -0.003571        -0.0972   13-A"
  78   1.0000      -0.000798        -0.0217   66-A'
  79   1.0000       0.000912         0.0248   14-A"
  80   1.0000       0.016835         0.4581   67-A'
  81   1.0000       0.024280         0.6607   68-A'
  82   1.0000       0.035246         0.9591   69-A'
  83   1.0000       0.044896         1.2217   15-A"
  84   1.0000       0.057322         1.5598   16-A"
  85   1.0000       0.058765         1.5991   17-A"
  86   1.0000       0.092281         2.5111   18-A"
  87   1.0000       0.105699         2.8762   70-A'
  88   0.0000       0.176542         4.8039   71-A'
  89   0.0000       0.183687         4.9984   72-A'
  90   0.0000       0.190719         5.1897   73-A'
  91   0.0000       0.190942         5.1958   19-A"
  92   0.0000       0.199318         5.4237   20-A"

                 SPIN DOWN ORBITALS
  NO   OCC          E(Eh)            E(eV)    Irrep
   0   1.0000    -318.180623     -8658.1349    1-A'
   1   1.0000     -88.013784     -2394.9768    2-A'
   2   1.0000     -88.013745     -2394.9758    3-A'
   3   1.0000     -88.012050     -2394.9296    4-A'
   4   1.0000     -88.011844     -2394.9240    5-A'
   5   1.0000     -38.010144     -1034.3086    6-A'
   6   1.0000     -33.513997      -911.9622    7-A'
   7   1.0000     -33.513206      -911.9407    8-A'
   8   1.0000     -33.510142      -911.8573    1-A"
   9   1.0000      -9.836807      -267.6731    9-A'
  10   1.0000      -9.836368      -267.6612   10-A'
  11   1.0000      -9.836312      -267.6596   11-A'
  12   1.0000      -9.835500      -267.6376   12-A'
  13   1.0000      -9.833839      -267.5924   13-A'
  14   1.0000      -9.833254      -267.5764   14-A'
  15   1.0000      -9.827438      -267.4182   15-A'
  16   1.0000      -9.827154      -267.4104   16-A'
  17   1.0000      -9.814501      -267.0661   17-A'
  18   1.0000      -9.814080      -267.0547   18-A'
  19   1.0000      -9.810896      -266.9681   19-A'
  20   1.0000      -9.810879      -266.9676   20-A'
  21   1.0000      -7.582081      -206.3189   21-A'
  22   1.0000      -7.582037      -206.3177   22-A'
  23   1.0000      -7.581694      -206.3084   23-A'
  24   1.0000      -7.581456      -206.3019   24-A'
  25   1.0000      -5.505687      -149.8174   25-A'
  26   1.0000      -5.505652      -149.8164   26-A'
  27   1.0000      -5.504345      -149.7808   27-A'
  28   1.0000      -5.504114      -149.7746   28-A'
  29   1.0000      -5.498456      -149.6206   29-A'
  30   1.0000      -5.498406      -149.6192   30-A'
  31   1.0000      -5.498117      -149.6114   31-A'
  32   1.0000      -5.497909      -149.6057    2-A"
  33   1.0000      -5.497890      -149.6052   32-A'
  34   1.0000      -5.497664      -149.5990    3-A"
  35   1.0000      -5.497663      -149.5990    4-A"
  36   1.0000      -5.497618      -149.5978    5-A"
  37   1.0000      -3.989945      -108.5719   33-A'
  38   1.0000      -2.504282       -68.1450    6-A"
  39   1.0000      -2.503092       -68.1126   34-A'
  40   1.0000      -2.501581       -68.0715   35-A'
  41   1.0000      -0.604474       -16.4486   36-A'
  42   1.0000      -0.587411       -15.9843   37-A'
  43   1.0000      -0.502973       -13.6866   38-A'
  44   1.0000      -0.500793       -13.6273   39-A'
  45   1.0000      -0.495082       -13.4719   40-A'
  46   1.0000      -0.490359       -13.3434   41-A'
  47   1.0000      -0.415967       -11.3190   42-A'
  48   1.0000      -0.389234       -10.5916   43-A'
  49   1.0000      -0.388588       -10.5740   44-A'
  50   1.0000      -0.372787       -10.1441   45-A'
  51   1.0000      -0.334821        -9.1109   46-A'
  52   1.0000      -0.303821        -8.2674   47-A'
  53   1.0000      -0.303327        -8.2540   48-A'
  54   1.0000      -0.295152        -8.0315   49-A'
  55   1.0000      -0.233434        -6.3521   50-A'
  56   1.0000      -0.225004        -6.1227   51-A'
  57   1.0000      -0.211974        -5.7681   52-A'
  58   1.0000      -0.195671        -5.3245   53-A'
  59   1.0000      -0.191051        -5.1988   54-A'
  60   1.0000      -0.153866        -4.1869   55-A'
  61   1.0000      -0.151166        -4.1134   56-A'
  62   1.0000      -0.133117        -3.6223   57-A'
  63   1.0000      -0.130039        -3.5385    7-A"
  64   1.0000      -0.122748        -3.3402   58-A'
  65   1.0000      -0.114338        -3.1113    8-A"
  66   1.0000      -0.102145        -2.7795   59-A'
  67   1.0000      -0.072235        -1.9656   60-A'
  68   1.0000      -0.060472        -1.6455   61-A'
  69   1.0000      -0.051729        -1.4076   62-A'
  70   1.0000      -0.040967        -1.1148   63-A'
  71   1.0000      -0.037711        -1.0262    9-A"
  72   1.0000      -0.034858        -0.9485   10-A"
  73   1.0000      -0.026135        -0.7112   11-A"
  74   1.0000      -0.020330        -0.5532   12-A"
  75   1.0000      -0.019278        -0.5246   64-A'
  76   1.0000      -0.002007        -0.0546   65-A'
  77   1.0000       0.006375         0.1735   13-A"
  78   1.0000       0.009804         0.2668   66-A'
  79   1.0000       0.013019         0.3543   14-A"
  80   1.0000       0.028109         0.7649   67-A'
  81   1.0000       0.035372         0.9625   68-A'
  82   1.0000       0.043445         1.1822   69-A'
  83   1.0000       0.048918         1.3311   15-A"
  84   1.0000       0.060236         1.6391   16-A"
  85   1.0000       0.063489         1.7276   17-A"
  86   1.0000       0.095795         2.6067   18-A"
  87   0.0000       0.138411         3.7664   70-A'
  88   0.0000       0.178792         4.8652   71-A'
  89   0.0000       0.184486         5.0201   72-A'
  90   0.0000       0.190929         5.1955   19-A"
  91   0.0000       0.194555         5.2941   73-A'

MULLIKEN ATOMIC CHARGES AND SPIN POPULATIONS
--------------------------------------------
   0 Cu:    0.146016    0.374065
   1 S :   -0.403438    0.152591
   2 C :    0.028443   -0.006424
   3 S :   -0.460083    0.171993
   4 C :    0.021827   -0.009744
   5 S :   -0.399801    0.152657
   6 C :    0.025709   -0.006438
   7 S :   -0.460138    0.172006
   8 C :    0.023775   -0.009786
   9 C :   -0.044617   -0.001776
  10 C :   -0.045233   -0.001473
  11 C :   -0.119552    0.000587
  12 H :    0.031470    0.001064
  13 C :   -0.117301    0.000652
  14 H :    0.031338    0.001247
  15 H :    0.035997    0.001597
  16 H :    0.035584    0.001653
  17 C :   -0.087123    0.000604
  18 C :   -0.087118    0.000962
  19 C :   -0.172079   -0.001347
  20 H :    0.065589    0.002476
  21 C :   -0.170318   -0.001303
  22 H :    0.065026    0.002171
  23 H :    0.028127    0.000986
  24 H :    0.027900    0.000982
Sum of atomic charges         :   -2.0000000

LOEWDIN ATOMIC CHARGES AND SPIN POPULATIONS
-------------------------------------------
   0 Cu:   -0.896188    0.440824
   1 S :    0.019208    0.114904
   2 C :   -0.025749    0.006271
   3 S :   -0.006752    0.132406
   4 C :   -0.074368    0.003389
   5 S :    0.020188    0.115033
   6 C :   -0.025443    0.006269
   7 S :   -0.007615    0.132182
   8 C :   -0.073910    0.003422
   9 C :    0.298852    0.004107
  10 C :    0.294998    0.004069
  11 C :    0.338329    0.000909
  12 H :   -0.396230    0.004426
  13 C :    0.341113    0.000991
  14 H :   -0.395711    0.004402
  15 H :   -0.418095    0.000648
  16 H :   -0.418959    0.000666
  17 C :    0.297020    0.004318
  18 C :    0.296868    0.004388
  19 C :    0.287870   -0.000232
  20 H :   -0.451802    0.008279
  21 C :    0.286829   -0.000208
  22 H :   -0.451952    0.008360
  23 H :   -0.419344    0.000087
  24 H :   -0.419154    0.000090

  Mayer bond orders larger than 0.100000
B(  0-Cu,  1-S ) :   0.6969 B(  0-Cu,  3-S ) :   0.7030 B(  0-Cu,  5-S ) :   0.6951
B(  0-Cu,  7-S ) :   0.7036 B(  1-S ,  2-C ) :   1.2125 B(  2-C ,  6-C ) :   1.2651
B(  2-C , 17-C ) :   1.2453 B(  3-S ,  4-C ) :   1.1295 B(  4-C ,  8-C ) :   1.2169
B(  4-C , 10-C ) :   1.4200 B(  5-S ,  6-C ) :   1.2156 B(  6-C , 18-C ) :   1.2430
B(  7-S ,  8-C ) :   1.1307 B(  8-C ,  9-C ) :   1.4203 B(  9-C , 13-C ) :   1.2360
B(  9-C , 14-H ) :   0.9624 B( 10-C , 11-C ) :   1.2386 B( 10-C , 12-H ) :   0.9629
B( 11-C , 13-C ) :   1.4547 B( 11-C , 15-H ) :   0.9801 B( 13-C , 16-H ) :   0.9809
B( 17-C , 19-C ) :   1.4417 B( 17-C , 20-H ) :   0.9508 B( 18-C , 21-C ) :   1.4432
B( 18-C , 22-H ) :   0.9502 B( 19-C , 21-C ) :   1.2761 B( 19-C , 23-H ) :   0.9945
B( 21-C , 24-H ) :   0.9944

FINAL SINGLE POINT ENERGY     -3686.816956874914

DIPOLE MOMENT
-------------
                                X             Y             Z
Electronic contribution:     -0.46542       0.36642      -0.00000
Nuclear contribution   :      0.84118      -0.64678       0.00000
                        -----------------------------------------
Total Dipole Moment    :      0.37576      -0.28036      -0.00000
                        -----------------------------------------
Magnitude (a.u.)       :      0.46883
Magnitude (Debye)      :      1.19166

Rotational constants in cm-1:     0.033421     0.004802     0.004199
Rotational constants in MHz :  1001.934108   143.966049   125.878763

                             ****ORCA TERMINATED NORMALLY****
TOTAL RUN TIME: 0 days 6 hours 48 minutes 52 seconds 956 msec
