                         Program Version 5.0.4 -  RELEASE  -
|  1> ! RIJCOSX nofrozencore ReducedPop printbasis
|  2> ! M06L ano-rcc-dzp autoaux
|  3>
|  4> %maxcore 5000
|  5> %basis
|  6> PCDTrimBas overlap
|  7> PCDTrimAuxJ Coulomb
|  8> PCDTrimAuxJK Coulomb
|  9> PCDTrimAuxC Coulomb
| 10> PCDThresh -1
| 11> end
| 12>
| 13> %basis
| 14> newgto Cu "ano-rcc-tzp" end
| 15> newgto S "ano-rcc-tzp" end
| 16> end
| 17>
| 18> %pal
| 19> nprocs 4
| 20> end
| 21>
| 22> % sym SymThresh 1e-2 end
| 23> * xyz -2 2
| 24> Cu -0.00942316776626125 -0.019036568036241847 0.0060734565652872
| 25> S 0.7525772306856013 1.937559294233626 1.092099711498673
| 26> C 0.3222688464104546 1.4397887135489678 2.7739212647281977
| 27> S 0.703880602603543 1.0111858328405516 -2.0065265917515354
| 28> C 0.21173951941574787 -0.3560782301530908 -3.0995289390764897
| 29> S -0.6258745855052477 -0.8328344213848007 2.0347446805103777
| 30> C -0.2830911280264885 0.25237968032490204 3.2984081679999506
| 31> S -0.6773131704878663 -1.8064601337802988 -1.2197986766901905
| 32> C -0.39874844040454016 -1.6354929404373313 -2.8803775754125707
| 33> C -0.7071788328458898 -2.5853787255343867 -3.9169574450753117
| 34> C 0.47265406678559396 -0.13478265451436564 -4.42368929344129
| 35> C 0.19162115148556813 -1.0233504592437919 -5.455359823542977
| 36> H 0.935983538472907 0.8099071804854596 -4.689523186013247
| 37> C -0.4053092496062599 -2.2747680149799385 -5.242646968132877
| 38> H -1.1704050999555182 -3.5247602125544755 -3.631920646172772
| 39> H 0.4590560438441021 -0.704815596943993 -6.465930956256468
| 40> H -0.6135368182831386 -2.951397607731631 -6.076065656246237
| 41> C 0.6223658593708863 2.355751425675473 3.751275464190748
| 42> C -0.5477655374268847 0.04134298786099703 4.692485844778561
| 43> C 0.37863019883618354 2.180721524163092 5.108067123612813
| 44> H 1.0849545999189527 3.2865129221535057 3.4389327293046503
| 45> C -0.21306735561941997 1.0212999634170925 5.625210532788226
| 46> H -1.0109403431023885 -0.8955633519491617 4.986453081464881
| 47> H 0.6698160933627142 2.9948225779579767 5.774157179373926
| 48> H -0.3951146916828247 0.905435165059118 6.694801045554062
| 49> *
| 50>
| 51> % eprnmr
| 52> gtensor true
| 53> Nuclei = all H {aiso,adip,aorb,fgrad,rho}
| 54> Nuclei = all Cu {aiso,adip,aorb,fgrad,rho}
| 55> end
| 56>
| 57>                          ****END OF INPUT****

CARTESIAN COORDINATES (ANGSTROEM)
---------------------------------
  Cu    -0.021072    0.006637    0.000000
  S      2.101831    1.046660    0.000000
  C      1.512641    2.753798    0.000000
  S      1.161535   -2.048153    0.000000
  C     -0.313565   -3.111331    0.000000
  S     -0.966249    2.071686    0.000000
  C      0.194621    3.314431    0.000000
  S     -1.954561   -1.178835    0.000000
  C     -1.725035   -2.855638    0.000000
  C     -2.742885   -3.873425    0.000000
  C     -0.037169   -4.450754    0.000000
  C     -0.987759   -5.465277    0.000000
  H      1.007635   -4.744293    0.000000
  C     -2.368300   -5.216833    0.000000
  H     -3.782338   -3.560696    0.000000
  H     -0.612370   -6.491592    0.000000
  H     -3.090959   -6.037526    0.000000
  C      2.494698    3.712877    0.000000
  C     -0.072255    4.723977    0.000000
  C      2.268326    5.083892    0.000000
  H      3.525363    3.372887    0.000000
  C      0.981246    5.636364    0.000000
  H     -1.109212    5.045632    0.000000
  H      3.146252    5.732330    0.000000
  H      0.827095    6.716562    0.000000

 Total Charge           Charge          ....   -2
 Multiplicity           Mult            ....    2
 Number of Electrons    NEL             ....  175
 Basis Dimension        Dim             ....  475

ORBITAL ENERGIES
----------------
                 SPIN UP ORBITALS
  NO   OCC          E(Eh)            E(eV)    Irrep
   0   1.0000    -318.181836     -8658.1679    1-A'
   1   1.0000     -88.022935     -2395.2258    2-A'
   2   1.0000     -88.021681     -2395.1917    3-A'
   3   1.0000     -88.009919     -2394.8716    4-A'
   4   1.0000     -88.009183     -2394.8516    5-A'
   5   1.0000     -38.026521     -1034.7543    6-A'
   6   1.0000     -33.529578      -912.3862    7-A'
   7   1.0000     -33.528684      -912.3619    8-A'
   8   1.0000     -33.515408      -912.0006    1-A"
   9   1.0000      -9.838420      -267.7170    9-A'
  10   1.0000      -9.837567      -267.6938   10-A'
  11   1.0000      -9.832380      -267.5527   11-A'
  12   1.0000      -9.832127      -267.5458   12-A'
  13   1.0000      -9.831875      -267.5389   13-A'
  14   1.0000      -9.830658      -267.5058   14-A'
  15   1.0000      -9.826111      -267.3821   15-A'
  16   1.0000      -9.824796      -267.3463   16-A'
  17   1.0000      -9.820348      -267.2253   17-A'
  18   1.0000      -9.819927      -267.2138   18-A'
  19   1.0000      -9.809161      -266.9209   19-A'
  20   1.0000      -9.807938      -266.8876   20-A'
  21   1.0000      -7.589516      -206.5212   21-A'
  22   1.0000      -7.588559      -206.4952   22-A'
  23   1.0000      -7.580247      -206.2690   23-A'
  24   1.0000      -7.579816      -206.2573   24-A'
  25   1.0000      -5.513468      -150.0291   25-A'
  26   1.0000      -5.512376      -149.9994   26-A'
  27   1.0000      -5.507776      -149.8742   27-A'
  28   1.0000      -5.506797      -149.8476   28-A'
  29   1.0000      -5.505214      -149.8045    2-A"
  30   1.0000      -5.504327      -149.7804    3-A"
  31   1.0000      -5.503104      -149.7471   29-A'
  32   1.0000      -5.502606      -149.7335   30-A'
  33   1.0000      -5.497749      -149.6014   31-A'
  34   1.0000      -5.497296      -149.5890   32-A'
  35   1.0000      -5.496539      -149.5684    4-A"
  36   1.0000      -5.496125      -149.5572    5-A"
  37   1.0000      -4.024188      -109.5037   33-A'
  38   1.0000      -2.545400       -69.2638   34-A'
  39   1.0000      -2.543886       -69.2226   35-A'
  40   1.0000      -2.517194       -68.4963    6-A"
  41   1.0000      -0.589416       -16.0388   36-A'
  42   1.0000      -0.589229       -16.0337   37-A'
  43   1.0000      -0.506512       -13.7829   38-A'
  44   1.0000      -0.505324       -13.7506   39-A'
  45   1.0000      -0.489402       -13.3173   40-A'
  46   1.0000      -0.489067       -13.3082   41-A'
  47   1.0000      -0.409355       -11.1391   42-A'
  48   1.0000      -0.406673       -11.0661   43-A'
  49   1.0000      -0.387327       -10.5397   44-A'
  50   1.0000      -0.380112       -10.3434   45-A'
  51   1.0000      -0.323240        -8.7958   46-A'
  52   1.0000      -0.320232        -8.7139   47-A'
  53   1.0000      -0.297590        -8.0978   48-A'
  54   1.0000      -0.293888        -7.9971   49-A'
  55   1.0000      -0.231794        -6.3074   50-A'
  56   1.0000      -0.226560        -6.1650   51-A'
  57   1.0000      -0.189823        -5.1654   52-A'
  58   1.0000      -0.188907        -5.1404   53-A'
  59   1.0000      -0.178216        -4.8495   54-A'
  60   1.0000      -0.174763        -4.7556   55-A'
  61   1.0000      -0.148388        -4.0378   56-A'
  62   1.0000      -0.143906        -3.9159   57-A'
  63   1.0000      -0.128566        -3.4985   58-A'
  64   1.0000      -0.116953        -3.1824    7-A"
  65   1.0000      -0.116815        -3.1787    8-A"
  66   1.0000      -0.113262        -3.0820   59-A'
  67   1.0000      -0.083572        -2.2741   60-A'
  68   1.0000      -0.075023        -2.0415   61-A'
  69   1.0000      -0.069686        -1.8963   62-A'
  70   1.0000      -0.058941        -1.6039   63-A'
  71   1.0000      -0.039591        -1.0773    9-A"
  72   1.0000      -0.038006        -1.0342   10-A"
  73   1.0000      -0.031176        -0.8483   64-A'
  74   1.0000      -0.026253        -0.7144   11-A"
  75   1.0000      -0.023128        -0.6293   65-A'
  76   1.0000      -0.019217        -0.5229   12-A"
  77   1.0000      -0.004035        -0.1098   66-A'
  78   1.0000      -0.003017        -0.0821   13-A"
  79   1.0000       0.000947         0.0258   14-A"
  80   1.0000       0.015040         0.4093   67-A'
  81   1.0000       0.028462         0.7745   68-A'
  82   1.0000       0.043632         1.1873   69-A'
  83   1.0000       0.049269         1.3407   15-A"
  84   1.0000       0.049896         1.3577   16-A"
  85   1.0000       0.064470         1.7543   17-A"
  86   1.0000       0.087564         2.3827   18-A"
  87   1.0000       0.103788         2.8242   70-A'
  88   0.0000       0.180667         4.9162   71-A'
  89   0.0000       0.180832         4.9207   72-A'
  90   0.0000       0.197472         5.3735   73-A'
  91   0.0000       0.197717         5.3802   74-A'
  92   0.0000       0.199822         5.4374   19-A"

                 SPIN DOWN ORBITALS
  NO   OCC          E(Eh)            E(eV)    Irrep
   0   1.0000    -318.181669     -8658.1634    1-A'
   1   1.0000     -88.021660     -2395.1911    2-A'
   2   1.0000     -88.020417     -2395.1573    3-A'
   3   1.0000     -88.008995     -2394.8465    4-A'
   4   1.0000     -88.008258     -2394.8265    5-A'
   5   1.0000     -38.011123     -1034.3352    6-A'
   6   1.0000     -33.514871      -911.9860    7-A'
   7   1.0000     -33.514007      -911.9625    8-A'
   8   1.0000     -33.511204      -911.8862    1-A"
   9   1.0000      -9.838552      -267.7206    9-A'
  10   1.0000      -9.837698      -267.6974   10-A'
  11   1.0000      -9.832487      -267.5556   11-A'
  12   1.0000      -9.832236      -267.5487   12-A'
  13   1.0000      -9.831857      -267.5384   13-A'
  14   1.0000      -9.830642      -267.5054   14-A'
  15   1.0000      -9.826027      -267.3798   15-A'
  16   1.0000      -9.824718      -267.3442   16-A'
  17   1.0000      -9.820325      -267.2246   17-A'
  18   1.0000      -9.819906      -267.2132   18-A'
  19   1.0000      -9.809121      -266.9197   19-A'
  20   1.0000      -9.807900      -266.8865   20-A'
  21   1.0000      -7.588623      -206.4969   21-A'
  22   1.0000      -7.587678      -206.4712   22-A'
  23   1.0000      -7.579621      -206.2520   23-A'
  24   1.0000      -7.579187      -206.2402   24-A'
  25   1.0000      -5.512431      -150.0009   25-A'
  26   1.0000      -5.511340      -149.9712   26-A'
  27   1.0000      -5.504961      -149.7976   27-A'
  28   1.0000      -5.504241      -149.7780    2-A"
  29   1.0000      -5.504031      -149.7723   28-A'
  30   1.0000      -5.503362      -149.7541    3-A"
  31   1.0000      -5.502291      -149.7249   29-A'
  32   1.0000      -5.501789      -149.7113   30-A'
  33   1.0000      -5.495855      -149.5498   31-A'
  34   1.0000      -5.495831      -149.5492    4-A"
  35   1.0000      -5.495411      -149.5377    5-A"
  36   1.0000      -5.495404      -149.5375   32-A'
  37   1.0000      -3.991557      -108.6158   33-A'
  38   1.0000      -2.505806       -68.1865    6-A"
  39   1.0000      -2.504711       -68.1567   34-A'
  40   1.0000      -2.503147       -68.1141   35-A'
  41   1.0000      -0.589029       -16.0283   36-A'
  42   1.0000      -0.588862       -16.0237   37-A'
  43   1.0000      -0.505235       -13.7481   38-A'
  44   1.0000      -0.504114       -13.7176   39-A'
  45   1.0000      -0.488316       -13.2877   40-A'
  46   1.0000      -0.488004       -13.2793   41-A'
  47   1.0000      -0.405463       -11.0332   42-A'
  48   1.0000      -0.402817       -10.9612   43-A'
  49   1.0000      -0.383826       -10.4444   44-A'
  50   1.0000      -0.376606       -10.2480   45-A'
  51   1.0000      -0.321922        -8.7599   46-A'
  52   1.0000      -0.318539        -8.6679   47-A'
  53   1.0000      -0.295890        -8.0516   48-A'
  54   1.0000      -0.291758        -7.9391   49-A'
  55   1.0000      -0.231267        -6.2931   50-A'
  56   1.0000      -0.225847        -6.1456   51-A'
  57   1.0000      -0.188844        -5.1387   52-A'
  58   1.0000      -0.188014        -5.1161   53-A'
  59   1.0000      -0.177682        -4.8350   54-A'
  60   1.0000      -0.173811        -4.7296   55-A'
  61   1.0000      -0.147521        -4.0142   56-A'
  62   1.0000      -0.142649        -3.8817   57-A'
  63   1.0000      -0.127646        -3.4734   58-A'
  64   1.0000      -0.116785        -3.1779    7-A"
  65   1.0000      -0.116632        -3.1737    8-A"
  66   1.0000      -0.111815        -3.0426   59-A'
  67   1.0000      -0.082060        -2.2330   60-A'
  68   1.0000      -0.073104        -1.9893   61-A'
  69   1.0000      -0.060280        -1.6403   62-A'
  70   1.0000      -0.054735        -1.4894   63-A'
  71   1.0000      -0.037630        -1.0240    9-A"
  72   1.0000      -0.037103        -1.0096   10-A"
  73   1.0000      -0.023115        -0.6290   11-A"
  74   1.0000      -0.018404        -0.5008   12-A"
  75   1.0000      -0.016397        -0.4462   64-A'
  76   1.0000      -0.000573        -0.0156   65-A'
  77   1.0000       0.005839         0.1589   66-A'
  78   1.0000       0.006328         0.1722   13-A"
  79   1.0000       0.012808         0.3485   14-A"
  80   1.0000       0.030998         0.8435   67-A'
  81   1.0000       0.035095         0.9550   68-A'
  82   1.0000       0.051673         1.4061   69-A'
  83   1.0000       0.052969         1.4414   15-A"
  84   1.0000       0.054690         1.4882   16-A"
  85   1.0000       0.066624         1.8129   17-A"
  86   1.0000       0.091628         2.4933   18-A"
  87   0.0000       0.135622         3.6905   70-A'
  88   0.0000       0.182266         4.9597   71-A'
  89   0.0000       0.182430         4.9642   72-A'
  90   0.0000       0.198858         5.4112   73-A'
  91   0.0000       0.199045         5.4163   74-A'

MULLIKEN ATOMIC CHARGES AND SPIN POPULATIONS
--------------------------------------------
   0 Cu:    0.156925    0.365364
   1 S :   -0.445838    0.188461
   2 C :    0.015956   -0.008810
   3 S :   -0.450567    0.190784
   4 C :    0.013829   -0.009102
   5 S :   -0.385440    0.143343
   6 C :    0.008468   -0.008138
   7 S :   -0.379636    0.143162
   8 C :    0.004534   -0.008426
   9 C :   -0.164702    0.000464
  10 C :   -0.013486   -0.002560
  11 C :   -0.141376   -0.000534
  12 H :    0.072690    0.002552
  13 C :   -0.131620   -0.001554
  14 H :    0.055656    0.001048
  15 H :    0.035360    0.000323
  16 H :    0.017342    0.002042
  17 C :   -0.024050   -0.002515
  18 C :   -0.153777    0.000103
  19 C :   -0.139248   -0.000450
  20 H :    0.072140    0.002496
  21 C :   -0.135329   -0.001557
  22 H :    0.057722    0.001225
  23 H :    0.035132    0.000415
  24 H :    0.019313    0.001864
Sum of atomic charges         :   -2.0000000

LOEWDIN ATOMIC CHARGES AND SPIN POPULATIONS
-------------------------------------------
   0 Cu:   -0.891716    0.428374
   1 S :    0.010194    0.150161
   2 C :   -0.013748    0.001959
   3 S :    0.013026    0.152307
   4 C :   -0.008320    0.001267
   5 S :    0.000531    0.105001
   6 C :   -0.041018    0.006591
   7 S :   -0.004996    0.104845
   8 C :   -0.041066    0.006901
   9 C :    0.314411    0.003869
  10 C :    0.286585    0.003900
  11 C :    0.309063   -0.000229
  12 H :   -0.469450    0.010049
  13 C :    0.312081   -0.000006
  14 H :   -0.438280    0.003465
  15 H :   -0.423013   -0.000180
  16 H :   -0.405324    0.000655
  17 C :    0.289821    0.003913
  18 C :    0.313775    0.003765
  19 C :    0.309346   -0.000174
  20 H :   -0.464833    0.009466
  21 C :    0.312810   -0.000094
  22 H :   -0.439706    0.003764
  23 H :   -0.422899   -0.000120
  24 H :   -0.407273    0.000551

  Mayer bond orders larger than 0.100000
B(  0-Cu,  1-S ) :   0.6522 B(  0-Cu,  3-S ) :   0.6462 B(  0-Cu,  5-S ) :   0.7440
B(  0-Cu,  7-S ) :   0.7422 B(  1-S ,  2-C ) :   1.1627 B(  2-C ,  6-C ) :   1.2425
B(  2-C , 17-C ) :   1.3281 B(  3-S ,  4-C ) :   1.1563 B(  4-C ,  8-C ) :   1.2424
B(  4-C , 10-C ) :   1.3323 B(  5-S ,  6-C ) :   1.1986 B(  6-C , 18-C ) :   1.3186
B(  7-S ,  8-C ) :   1.2042 B(  8-C ,  9-C ) :   1.3182 B(  9-C , 13-C ) :   1.3693
B(  9-C , 14-H ) :   0.9784 B( 10-C , 11-C ) :   1.3380 B( 10-C , 12-H ) :   0.9601
B( 11-C , 13-C ) :   1.3420 B( 11-C , 15-H ) :   0.9869 B( 13-C , 16-H ) :   0.9957
B( 17-C , 19-C ) :   1.3438 B( 17-C , 20-H ) :   0.9613 B( 18-C , 21-C ) :   1.3692
B( 18-C , 22-H ) :   0.9765 B( 19-C , 21-C ) :   1.3404 B( 19-C , 23-H ) :   0.9867
B( 21-C , 24-H ) :   0.9948

FINAL SINGLE POINT ENERGY     -3686.877979737919

DIPOLE MOMENT
-------------
                                X             Y             Z
Electronic contribution:      0.00116       0.00218       0.00000
Nuclear contribution   :      0.01637      -0.00005       0.00000
                        -----------------------------------------
Total Dipole Moment    :      0.01752       0.00214       0.00000
                        -----------------------------------------
Magnitude (a.u.)       :      0.01765
Magnitude (Debye)      :      0.04487

Rotational constants in cm-1:     0.033269     0.004800     0.004195
Rotational constants in MHz :   997.368317   143.907688   125.761838

                             ****ORCA TERMINATED NORMALLY****
TOTAL RUN TIME: 0 days 5 hours 26 minutes 40 seconds 583 msec
