                         Program Version 5.0.4 -  RELEASE  -
|  1> ! RIJCOSX nofrozencore ReducedPop printbasis
|  2> ! M06L ano-rcc-dzp autoaux
|  3>
|  4> %maxcore 5000
|  5> %basis
|  6> PCDTrimBas overlap
|  7> PCDTrimAuxJ Coulomb
|  8> PCDTrimAuxJK Coulomb
|  9> PCDTrimAuxC Coulomb
| 10> PCDThresh -1
| 11> end
| 12>
| 13> %basis
| 14> newgto Cu "ano-rcc-tzp" end
| 15> newgto S "ano-rcc-tzp" end
| 16> end
| 17>
| 18> %pal
| 19> nprocs 12
| 20> end
| 21>
| 22> % sym SymThresh 1e-2 end
| 23> * xyz -2 2
| 24> Cu -0.018025901164924998 0.01321948885941771 0.1959371859614404
| 25> S 1.3736160677194535 0.7900805753788984 1.6024095566667387
| 26> C 2.788388881757796 1.3325871212283955 0.7578838491376678
| 27> S -1.632369837737798 -0.5757487147266432 1.43620099469973
| 28> C -2.8915412968061243 -1.2476146852608245 0.44912715744240245
| 29> S 1.6567504403186386 0.5678039287297946 -1.6098275908745654
| 30> C 2.954852208759414 1.2536382089145517 -0.6548225938780116
| 31> S -1.3668865891284039 -0.8061548694920153 -1.7780182609830613
| 32> C -2.814634792945918 -1.3672156744807848 -0.9681652429473714
| 33> C -3.941602288589247 -1.9414736466915217 -1.6025886241423077
| 34> C -4.02534681289127 -1.6803115473000838 1.145020748053981
| 35> C -5.117628869858462 -2.2401834382226267 0.4999080180475637
| 36> H -4.018178922205877 -1.559416357718019 2.2274953279887892
| 37> C -5.067700638898791 -2.3686807478841216 -0.8879536106243999
| 38> H -3.9293166959301877 -2.0538571354321924 -2.6869784616456336
| 39> H -5.986567289321118 -2.5682165771836787 1.0661941335846687
| 40> H -5.907493977139618 -2.803863428009712 -1.4274546849542247
| 41> C 3.7927815770522417 1.8709918058760795 1.5680316804422927
| 42> C 4.179749362019932 1.7476492624851179 -1.1624044277918932
| 43> C 4.984093604894789 2.3482676496570285 1.0449934788452593
| 44> H 3.602217501016234 1.9020649106659238 2.639758120116271
| 45> C 5.174394371121268 2.283501228472866 -0.3355669976807098
| 46> H 4.3512947838342395 1.7075896742802337 -2.2383558091727647
| 47> H 5.748199553506092 2.7620448393099455 1.6997344952164304
| 48> H 6.098501393466023 2.6495508305254147 -0.7796994295400396
| 49> *
| 50>
| 51> % eprnmr
| 52> gtensor true
| 53> Nuclei = all H {aiso,adip,aorb,fgrad,rho}
| 54> Nuclei = all Cu {aiso,adip,aorb,fgrad,rho}
| 55> end
| 56>
| 57>                          ****END OF INPUT****

CARTESIAN COORDINATES (ANGSTROEM)
---------------------------------
  Cu     0.000000    0.000000    0.197204
  S      1.652956    0.000000    1.528565
  C      3.123074    0.000000    0.607194
  S     -1.652956    0.000000    1.528565
  C     -3.123074    0.000000    0.607194
  S      1.662709    0.000000   -1.704283
  C      3.172303    0.000000   -0.816494
  S     -1.662709    0.000000   -1.704283
  C     -3.172303    0.000000   -0.816494
  C     -4.465415    0.000000   -1.390995
  C     -4.298657    0.000000    1.364835
  C     -5.554183    0.000000    0.777212
  H     -4.189936    0.000000    2.448499
  C     -5.631351    0.000000   -0.615556
  H     -4.552973    0.000000   -2.477745
  H     -6.452089    0.000000    1.391470
  H     -6.601198    0.000000   -1.110385
  C      4.298657    0.000000    1.364835
  C      4.465415    0.000000   -1.390995
  C      5.554183    0.000000    0.777212
  H      4.189936    0.000000    2.448499
  C      5.631351    0.000000   -0.615556
  H      4.552973    0.000000   -2.477745
  H      6.452089    0.000000    1.391470
  H      6.601198    0.000000   -1.110385

 Total Charge           Charge          ....   -2
 Multiplicity           Mult            ....    2
 Number of Electrons    NEL             ....  175
 Basis Dimension        Dim             ....  475

ORBITAL ENERGIES
----------------
                 SPIN UP ORBITALS
  NO   OCC          E(Eh)            E(eV)    Irrep
   0   1.0000    -318.185121     -8658.2573    1-A1
   1   1.0000     -88.016925     -2395.0623    1-B1
   2   1.0000     -88.016893     -2395.0614    2-A1
   3   1.0000     -88.012692     -2394.9471    2-B1
   4   1.0000     -88.012669     -2394.9465    3-A1
   5   1.0000     -38.030867     -1034.8725    4-A1
   6   1.0000     -33.533753      -912.4998    5-A1
   7   1.0000     -33.532960      -912.4782    3-B1
   8   1.0000     -33.519648      -912.1160    1-B2
   9   1.0000      -9.835557      -267.6391    4-B1
  10   1.0000      -9.835553      -267.6390    6-A1
  11   1.0000      -9.830872      -267.5116    5-B1
  12   1.0000      -9.830868      -267.5115    7-A1
  13   1.0000      -9.825545      -267.3667    6-B1
  14   1.0000      -9.825545      -267.3667    8-A1
  15   1.0000      -9.823532      -267.3119    7-B1
  16   1.0000      -9.823532      -267.3119    9-A1
  17   1.0000      -9.820393      -267.2265    8-B1
  18   1.0000      -9.820392      -267.2265   10-A1
  19   1.0000      -9.815197      -267.0851    9-B1
  20   1.0000      -9.815197      -267.0851   11-A1
  21   1.0000      -7.586768      -206.4464   10-B1
  22   1.0000      -7.586759      -206.4462   12-A1
  23   1.0000      -7.580595      -206.2785   11-B1
  24   1.0000      -7.580590      -206.2783   13-A1
  25   1.0000      -5.509779      -149.9287   12-B1
  26   1.0000      -5.509779      -149.9287   14-A1
  27   1.0000      -5.504625      -149.7885   13-B1
  28   1.0000      -5.504625      -149.7885   15-A1
  29   1.0000      -5.503995      -149.7713   14-B1
  30   1.0000      -5.503995      -149.7713   16-A1
  31   1.0000      -5.502710      -149.7363    1-A2
  32   1.0000      -5.502710      -149.7363    2-B2
  33   1.0000      -5.498595      -149.6244   15-B1
  34   1.0000      -5.498595      -149.6244   17-A1
  35   1.0000      -5.496691      -149.5726    2-A2
  36   1.0000      -5.496691      -149.5726    3-B2
  37   1.0000      -4.027913      -109.6051   18-A1
  38   1.0000      -2.548868       -69.3582   19-A1
  39   1.0000      -2.547988       -69.3343   16-B1
  40   1.0000      -2.520573       -68.5883    4-B2
  41   1.0000      -0.588498       -16.0138   20-A1
  42   1.0000      -0.588363       -16.0102   17-B1
  43   1.0000      -0.504983       -13.7413   21-A1
  44   1.0000      -0.503785       -13.7087   18-B1
  45   1.0000      -0.489171       -13.3110   22-A1
  46   1.0000      -0.488902       -13.3037   19-B1
  47   1.0000      -0.410812       -11.1788   23-A1
  48   1.0000      -0.407866       -11.0986   20-B1
  49   1.0000      -0.387751       -10.5512   24-A1
  50   1.0000      -0.381180       -10.3724   21-B1
  51   1.0000      -0.321343        -8.7442   25-A1
  52   1.0000      -0.318715        -8.6727   22-B1
  53   1.0000      -0.300410        -8.1746   26-A1
  54   1.0000      -0.296739        -8.0747   23-B1
  55   1.0000      -0.232864        -6.3366   27-A1
  56   1.0000      -0.227680        -6.1955   24-B1
  57   1.0000      -0.189491        -5.1563   28-A1
  58   1.0000      -0.188457        -5.1282   25-B1
  59   1.0000      -0.177933        -4.8418   29-A1
  60   1.0000      -0.174947        -4.7605   26-B1
  61   1.0000      -0.146623        -3.9898   30-A1
  62   1.0000      -0.143981        -3.9179   27-B1
  63   1.0000      -0.131294        -3.5727   31-A1
  64   1.0000      -0.116422        -3.1680    5-B2
  65   1.0000      -0.116353        -3.1661    3-A2
  66   1.0000      -0.115081        -3.1315   28-B1
  67   1.0000      -0.086404        -2.3512   32-A1
  68   1.0000      -0.074836        -2.0364   29-B1
  69   1.0000      -0.070373        -1.9149   33-A1
  70   1.0000      -0.056600        -1.5402   30-B1
  71   1.0000      -0.041551        -1.1307    4-A2
  72   1.0000      -0.039121        -1.0645    6-B2
  73   1.0000      -0.038939        -1.0596   34-A1
  74   1.0000      -0.030293        -0.8243   31-B1
  75   1.0000      -0.026614        -0.7242    7-B2
  76   1.0000      -0.019673        -0.5353    5-A2
  77   1.0000      -0.005230        -0.1423    8-B2
  78   1.0000      -0.003504        -0.0954   35-A1
  79   1.0000      -0.003181        -0.0866    6-A2
  80   1.0000       0.016429         0.4471   36-A1
  81   1.0000       0.021666         0.5896   32-B1
  82   1.0000       0.041238         1.1221   37-A1
  83   1.0000       0.051124         1.3912    9-B2
  84   1.0000       0.051920         1.4128    7-A2
  85   1.0000       0.062841         1.7100   10-B2
  86   1.0000       0.088280         2.4022    8-A2
  87   1.0000       0.102029         2.7763   33-B1
  88   0.0000       0.181418         4.9366   38-A1
  89   0.0000       0.181536         4.9399   34-B1
  90   0.0000       0.196797         5.3551   35-B1
  91   0.0000       0.196960         5.3596   39-A1
  92   0.0000       0.199894         5.4394   11-B2

                 SPIN DOWN ORBITALS
  NO   OCC          E(Eh)            E(eV)    Irrep
   0   1.0000    -318.184922     -8658.2519    1-A1
   1   1.0000     -88.015937     -2395.0354    1-B1
   2   1.0000     -88.015905     -2395.0345    2-A1
   3   1.0000     -88.011496     -2394.9145    2-B1
   4   1.0000     -88.011473     -2394.9139    3-A1
   5   1.0000     -38.016097     -1034.4706    4-A1
   6   1.0000     -33.519648      -912.1160    5-A1
   7   1.0000     -33.518811      -912.0932    3-B1
   8   1.0000     -33.515586      -912.0055    1-B2
   9   1.0000      -9.835718      -267.6435    4-B1
  10   1.0000      -9.835714      -267.6434    6-A1
  11   1.0000      -9.830920      -267.5129    5-B1
  12   1.0000      -9.830916      -267.5128    7-A1
  13   1.0000      -9.825538      -267.3665    6-B1
  14   1.0000      -9.825538      -267.3665    8-A1
  15   1.0000      -9.823488      -267.3107    7-B1
  16   1.0000      -9.823488      -267.3107    9-A1
  17   1.0000      -9.820332      -267.2248    8-B1
  18   1.0000      -9.820332      -267.2248   10-A1
  19   1.0000      -9.815126      -267.0832    9-B1
  20   1.0000      -9.815125      -267.0831   11-A1
  21   1.0000      -7.586090      -206.4280   10-B1
  22   1.0000      -7.586082      -206.4278   12-A1
  23   1.0000      -7.579775      -206.2562   11-B1
  24   1.0000      -7.579770      -206.2560   13-A1
  25   1.0000      -5.508890      -149.9045   12-B1
  26   1.0000      -5.508890      -149.9045   14-A1
  27   1.0000      -5.502977      -149.7436   13-B1
  28   1.0000      -5.502977      -149.7436   15-A1
  29   1.0000      -5.502589      -149.7330   14-B1
  30   1.0000      -5.502588      -149.7330   16-A1
  31   1.0000      -5.501954      -149.7158    1-A2
  32   1.0000      -5.501954      -149.7158    2-B2
  33   1.0000      -5.496047      -149.5550   15-B1
  34   1.0000      -5.496046      -149.5550   17-A1
  35   1.0000      -5.495780      -149.5478    2-A2
  36   1.0000      -5.495780      -149.5478    3-B2
  37   1.0000      -3.996955      -108.7627   18-A1
  38   1.0000      -2.510299       -68.3087   19-A1
  39   1.0000      -2.509624       -68.2903    4-B2
  40   1.0000      -2.509266       -68.2806   16-B1
  41   1.0000      -0.588066       -16.0021   20-A1
  42   1.0000      -0.587944       -15.9988   17-B1
  43   1.0000      -0.503540       -13.7020   21-A1
  44   1.0000      -0.502420       -13.6715   18-B1
  45   1.0000      -0.488069       -13.2810   22-A1
  46   1.0000      -0.487829       -13.2745   19-B1
  47   1.0000      -0.406831       -11.0704   23-A1
  48   1.0000      -0.403742       -10.9864   20-B1
  49   1.0000      -0.384336       -10.4583   24-A1
  50   1.0000      -0.377842       -10.2816   21-B1
  51   1.0000      -0.320097        -8.7103   25-A1
  52   1.0000      -0.317130        -8.6295   22-B1
  53   1.0000      -0.298534        -8.1235   26-A1
  54   1.0000      -0.294414        -8.0114   23-B1
  55   1.0000      -0.232267        -6.3203   27-A1
  56   1.0000      -0.226881        -6.1738   24-B1
  57   1.0000      -0.188406        -5.1268   28-A1
  58   1.0000      -0.187471        -5.1014   25-B1
  59   1.0000      -0.177413        -4.8276   29-A1
  60   1.0000      -0.173972        -4.7340   26-B1
  61   1.0000      -0.145931        -3.9710   30-A1
  62   1.0000      -0.142277        -3.8715   27-B1
  63   1.0000      -0.129975        -3.5368   31-A1
  64   1.0000      -0.116233        -3.1629    5-B2
  65   1.0000      -0.116131        -3.1601    3-A2
  66   1.0000      -0.113535        -3.0895   28-B1
  67   1.0000      -0.084933        -2.3111   32-A1
  68   1.0000      -0.068691        -1.8692   33-A1
  69   1.0000      -0.065129        -1.7723   29-B1
  70   1.0000      -0.050197        -1.3659   30-B1
  71   1.0000      -0.038843        -1.0570    4-A2
  72   1.0000      -0.037740        -1.0270    6-B2
  73   1.0000      -0.031311        -0.8520   34-A1
  74   1.0000      -0.023341        -0.6351    7-B2
  75   1.0000      -0.018588        -0.5058    5-A2
  76   1.0000      -0.006969        -0.1896   31-B1
  77   1.0000       0.003053         0.0831    8-B2
  78   1.0000       0.006792         0.1848    6-A2
  79   1.0000       0.006846         0.1863   35-A1
  80   1.0000       0.029642         0.8066   36-A1
  81   1.0000       0.031215         0.8494   32-B1
  82   1.0000       0.050231         1.3669   37-A1
  83   1.0000       0.055337         1.5058    7-A2
  84   1.0000       0.056386         1.5343    9-B2
  85   1.0000       0.064998         1.7687   10-B2
  86   1.0000       0.092497         2.5170    8-A2
  87   0.0000       0.132284         3.5996   33-B1
  88   0.0000       0.182512         4.9664   38-A1
  89   0.0000       0.182621         4.9694   34-B1
  90   0.0000       0.198692         5.4067   35-B1
  91   0.0000       0.198888         5.4120   39-A1

MULLIKEN ATOMIC CHARGES AND SPIN POPULATIONS
--------------------------------------------
   0 Cu:    0.130332    0.356209
   1 S :   -0.370700    0.156819
   2 C :    0.041557   -0.005425
   3 S :   -0.370700    0.156819
   4 C :    0.041557   -0.005425
   5 S :   -0.465115    0.177650
   6 C :   -0.000964   -0.008952
   7 S :   -0.465115    0.177650
   8 C :   -0.000964   -0.008952
   9 C :   -0.111456   -0.001204
  10 C :   -0.069817   -0.001465
  11 C :   -0.140770   -0.000507
  12 H :    0.066063    0.002518
  13 C :   -0.132703   -0.001076
  14 H :    0.058757    0.001241
  15 H :    0.026560    0.001292
  16 H :    0.033422    0.001006
  17 C :   -0.069817   -0.001465
  18 C :   -0.111456   -0.001204
  19 C :   -0.140770   -0.000507
  20 H :    0.066063    0.002518
  21 C :   -0.132703   -0.001076
  22 H :    0.058757    0.001241
  23 H :    0.026560    0.001292
  24 H :    0.033422    0.001006
Sum of atomic charges         :   -2.0000000

LOEWDIN ATOMIC CHARGES AND SPIN POPULATIONS
-------------------------------------------
   0 Cu:   -0.884500    0.422236
   1 S :    0.063646    0.104900
   2 C :   -0.026075    0.006027
   3 S :    0.063646    0.104900
   4 C :   -0.026075    0.006027
   5 S :   -0.052364    0.151755
   6 C :   -0.046515    0.005457
   7 S :   -0.052364    0.151755
   8 C :   -0.046515    0.005457
   9 C :    0.306801    0.003076
  10 C :    0.304211    0.005212
  11 C :    0.309875    0.000431
  12 H :   -0.453980    0.006573
  13 C :    0.310800   -0.000552
  14 H :   -0.438861    0.005535
  15 H :   -0.414454    0.000258
  16 H :   -0.420832    0.000209
  17 C :    0.304211    0.005212
  18 C :    0.306801    0.003076
  19 C :    0.309875    0.000431
  20 H :   -0.453980    0.006573
  21 C :    0.310800   -0.000552
  22 H :   -0.438861    0.005535
  23 H :   -0.414454    0.000258
  24 H :   -0.420832    0.000209

  Mayer bond orders larger than 0.100000
B(  0-Cu,  1-S ) :   0.9119 B(  0-Cu,  3-S ) :   0.9119 B(  0-Cu,  5-S ) :   0.5364
B(  0-Cu,  7-S ) :   0.5364 B(  1-S ,  2-C ) :   1.1696 B(  2-C ,  6-C ) :   1.2445
B(  2-C , 17-C ) :   1.3164 B(  3-S ,  4-C ) :   1.1696 B(  4-C ,  8-C ) :   1.2445
B(  4-C , 10-C ) :   1.3164 B(  5-S ,  6-C ) :   1.1982 B(  6-C , 18-C ) :   1.3161
B(  7-S ,  8-C ) :   1.1982 B(  8-C ,  9-C ) :   1.3161 B(  9-C , 13-C ) :   1.3658
B(  9-C , 14-H ) :   0.9762 B( 10-C , 11-C ) :   1.3585 B( 10-C , 12-H ) :   0.9650
B( 11-C , 13-C ) :   1.3387 B( 11-C , 15-H ) :   0.9905 B( 13-C , 16-H ) :   0.9875
B( 17-C , 19-C ) :   1.3585 B( 17-C , 20-H ) :   0.9650 B( 18-C , 21-C ) :   1.3658
B( 18-C , 22-H ) :   0.9762 B( 19-C , 21-C ) :   1.3387 B( 19-C , 23-H ) :   0.9905
B( 21-C , 24-H ) :   0.9875

FINAL SINGLE POINT ENERGY     -3686.908744204460

DIPOLE MOMENT
-------------
                                X             Y             Z
Electronic contribution:      0.00000      -0.00000       1.08571
Nuclear contribution   :     -0.00000       0.00000      -0.54058
                        -----------------------------------------
Total Dipole Moment    :      0.00000      -0.00000       0.54513
                        -----------------------------------------
Magnitude (a.u.)       :      0.54513
Magnitude (Debye)      :      1.38561

Rotational constants in cm-1:     0.033113     0.004812     0.004202
Rotational constants in MHz :   992.705563   144.262634   125.958069

                             ****ORCA TERMINATED NORMALLY****
TOTAL RUN TIME: 0 days 6 hours 14 minutes 36 seconds 413 msec
