                         Program Version 5.0.4 -  RELEASE  -
|  1> ! RIJCOSX nofrozencore ReducedPop printbasis
|  2> ! M06L ano-rcc-dzp autoaux
|  3>
|  4> %maxcore 5000
|  5> %basis
|  6> PCDTrimBas overlap
|  7> PCDTrimAuxJ Coulomb
|  8> PCDTrimAuxJK Coulomb
|  9> PCDTrimAuxC Coulomb
| 10> PCDThresh -1
| 11> end
| 12>
| 13> %basis
| 14> newgto Cu "ano-rcc-tzp" end
| 15> newgto S "ano-rcc-tzp" end
| 16> end
| 17>
| 18> %pal
| 19> nprocs 8
| 20> end
| 21>
| 22> % sym SymThresh 1e-2 end
| 23> * xyz -2 2
| 24> Cu -8.415601817034458e-06 0.0001880453902410993 -0.00014468278700360243
| 25> S -1.1143707447576765 -2.00267769626528 0.3407229468274964
| 26> C -0.37035986931427556 -2.814541552138491 1.6707870830651534
| 27> S -1.386766760971326 0.5443859465360584 -1.7768971602822539
| 28> C -0.6737043301467497 2.120312389917821 -2.2083377811348286
| 29> S 1.3844226338124637 -0.5462260677317661 1.7758942416174601
| 30> C 0.8885634718465376 -2.0807256017427127 2.393817205489687
| 31> S 1.1168486534459316 2.003681517145555 -0.33898052949143886
| 32> C 0.1724647872727847 2.611511801127806 -1.7208942982874214
| 33> C 0.7236345995295208 4.059600509699759 -2.2210535630144554
| 34> C -1.449318423874302 2.790227847987842 -3.4670207153919126
| 35> C -1.0586740224332893 3.909407974619304 -3.888800910091684
| 36> H -2.2987581011644638 2.3853257688977614 -4.020273642281337
| 37> C 0.15534555343912862 4.6167062094014755 -3.1913110060209666
| 38> H 1.556334816779684 4.621649654487987 -1.7983873248839972
| 39> H -1.4457356449097238 4.5263271595418315 -4.721763221134287
| 40> H 0.3773978372004024 5.586989875575703 -3.673224676585419
| 41> C -0.7017417156312481 -3.9394154902953322 2.1557670551022197
| 42> C 1.4062494611879697 -2.7102323540847424 3.366109327152911
| 43> C -0.0406157674874664 -4.597477517712311 3.291736868269736
| 44> H -1.5481608808208023 -4.363692029953554 1.6195690497119872
| 45> C 0.9533479929401554 -4.018225656235165 3.8626822503833336
| 46> H 2.239246932804396 -2.159266211672946 3.7971047587116518
| 47> H -0.47657782079086214 -5.561289244044464 3.555734373722197
| 48> H 1.5306177391784752 -4.391638845329026 4.708752486832826
| 49> *
| 50>
| 51> % eprnmr
| 52> gtensor true
| 53> Nuclei = all H {aiso,adip,aorb,fgrad,rho}
| 54> Nuclei = all Cu {aiso,adip,aorb,fgrad,rho}
| 55> end
| 56>
| 57>                          ****END OF INPUT****

CARTESIAN COORDINATES (ANGSTROEM)
---------------------------------
  Cu    -0.000061    0.000230    0.000000
  S     -1.013401   -2.083662    0.000000
  C      0.225774   -3.286239    0.000000
  S     -2.056070    1.072109    0.000000
  C     -1.484702    2.760801    0.000000
  S      2.053318   -1.073627    0.000000
  C      1.770816   -2.777325    0.000000
  S      1.016558    2.084133    0.000000
  C     -0.445692    3.100415    0.000000
  C     -0.064247    4.683264    0.000000
  C     -2.730325    3.801507    0.000000
  C     -2.484278    5.035414    0.000000
  H     -3.796440    3.567031    0.000000
  C     -0.994256    5.525761    0.000000
  H      0.937630    5.112423    0.000000
  H     -3.179876    5.895865    0.000000
  H     -0.941864    6.630412    0.000000
  C      0.062993   -4.544755    0.000000
  C      2.649953   -3.692064    0.000000
  C      1.147534   -5.536889    0.000000
  H     -0.993882   -4.803520    0.000000
  C      2.367430   -5.135231    0.000000
  H      3.655142   -3.276370    0.000000
  H      0.798281   -6.569707    0.000000
  H      3.261742   -5.758704    0.000000

 Total Charge           Charge          ....   -2
 Multiplicity           Mult            ....    2
 Number of Electrons    NEL             ....  175
 Basis Dimension        Dim             ....  475

ORBITAL ENERGIES
----------------
                 SPIN UP ORBITALS
  NO   OCC          E(Eh)            E(eV)    Irrep
   0   1.0000    -318.173932     -8657.9529    1-A'
   1   1.0000     -88.007136     -2394.7959    2-A'
   2   1.0000     -88.006882     -2394.7890    3-A'
   3   1.0000     -88.006568     -2394.7805    4-A'
   4   1.0000     -88.006522     -2394.7792    5-A'
   5   1.0000     -38.019051     -1034.5510    6-A'
   6   1.0000     -33.522140      -912.1838    7-A'
   7   1.0000     -33.521462      -912.1653    8-A'
   8   1.0000     -33.507528      -911.7862    1-A"
   9   1.0000      -9.836904      -267.6758    9-A'
  10   1.0000      -9.836226      -267.6573   10-A'
  11   1.0000      -9.834997      -267.6239   11-A'
  12   1.0000      -9.834441      -267.6087   12-A'
  13   1.0000      -9.819704      -267.2077   13-A'
  14   1.0000      -9.819657      -267.2064   14-A'
  15   1.0000      -9.818890      -267.1856   15-A'
  16   1.0000      -9.817774      -267.1552   16-A'
  17   1.0000      -9.810423      -266.9552   17-A'
  18   1.0000      -9.804558      -266.7956   18-A'
  19   1.0000      -9.792203      -266.4594   19-A'
  20   1.0000      -9.792198      -266.4592   20-A'
  21   1.0000      -7.575617      -206.1430   21-A'
  22   1.0000      -7.575586      -206.1422   22-A'
  23   1.0000      -7.575435      -206.1381   23-A'
  24   1.0000      -7.575156      -206.1305   24-A'
  25   1.0000      -5.499281      -149.6430   25-A'
  26   1.0000      -5.498997      -149.6353   26-A'
  27   1.0000      -5.498795      -149.6298   27-A'
  28   1.0000      -5.498771      -149.6292   28-A'
  29   1.0000      -5.493529      -149.4865   29-A'
  30   1.0000      -5.493443      -149.4842   30-A'
  31   1.0000      -5.493411      -149.4833   31-A'
  32   1.0000      -5.493263      -149.4793   32-A'
  33   1.0000      -5.491661      -149.4357    2-A"
  34   1.0000      -5.491628      -149.4348    3-A"
  35   1.0000      -5.490828      -149.4130    4-A"
  36   1.0000      -5.490548      -149.4054    5-A"
  37   1.0000      -4.016683      -109.2995   33-A'
  38   1.0000      -2.537999       -69.0625   34-A'
  39   1.0000      -2.536788       -69.0295   35-A'
  40   1.0000      -2.509098       -68.2760    6-A"
  41   1.0000      -0.602620       -16.3981   36-A'
  42   1.0000      -0.585441       -15.9306   37-A'
  43   1.0000      -0.532665       -14.4945   38-A'
  44   1.0000      -0.504241       -13.7211   39-A'
  45   1.0000      -0.499567       -13.5939   40-A'
  46   1.0000      -0.498623       -13.5682   41-A'
  47   1.0000      -0.401287       -10.9196   42-A'
  48   1.0000      -0.394527       -10.7356   43-A'
  49   1.0000      -0.391099       -10.6423   44-A'
  50   1.0000      -0.374595       -10.1933   45-A'
  51   1.0000      -0.349171        -9.5014   46-A'
  52   1.0000      -0.307996        -8.3810   47-A'
  53   1.0000      -0.286901        -7.8070   48-A'
  54   1.0000      -0.268770        -7.3136   49-A'
  55   1.0000      -0.249660        -6.7936   50-A'
  56   1.0000      -0.223247        -6.0748   51-A'
  57   1.0000      -0.197135        -5.3643   52-A'
  58   1.0000      -0.184396        -5.0177   53-A'
  59   1.0000      -0.182302        -4.9607   54-A'
  60   1.0000      -0.170639        -4.6433   55-A'
  61   1.0000      -0.162385        -4.4187   56-A'
  62   1.0000      -0.132211        -3.5976    7-A"
  63   1.0000      -0.132000        -3.5919   57-A'
  64   1.0000      -0.130440        -3.5495   58-A'
  65   1.0000      -0.112507        -3.0615    8-A"
  66   1.0000      -0.107323        -2.9204   59-A'
  67   1.0000      -0.079561        -2.1650   60-A'
  68   1.0000      -0.067887        -1.8473   61-A'
  69   1.0000      -0.062648        -1.7047    9-A"
  70   1.0000      -0.053502        -1.4559   62-A'
  71   1.0000      -0.042218        -1.1488   63-A'
  72   1.0000      -0.032200        -0.8762   10-A"
  73   1.0000      -0.029757        -0.8097   11-A"
  74   1.0000      -0.027898        -0.7591   12-A"
  75   1.0000      -0.016893        -0.4597   64-A'
  76   1.0000      -0.015911        -0.4330   65-A'
  77   1.0000      -0.000665        -0.0181   13-A"
  78   1.0000       0.005518         0.1502   14-A"
  79   1.0000       0.005533         0.1506   66-A'
  80   1.0000       0.023653         0.6436   67-A'
  81   1.0000       0.032578         0.8865   68-A'
  82   1.0000       0.041517         1.1297   69-A'
  83   1.0000       0.050980         1.3872   15-A"
  84   1.0000       0.061358         1.6696   16-A"
  85   1.0000       0.065132         1.7723   17-A"
  86   1.0000       0.088564         2.4099   18-A"
  87   1.0000       0.112331         3.0567   70-A'
  88   0.0000       0.170630         4.6431   71-A'
  89   0.0000       0.184449         5.0191   72-A'
  90   0.0000       0.185889         5.0583   19-A"
  91   0.0000       0.189775         5.1640   73-A'
  92   0.0000       0.197497         5.3742   74-A'

                 SPIN DOWN ORBITALS
  NO   OCC          E(Eh)            E(eV)    Irrep
   0   1.0000    -318.173760     -8657.9482    1-A'
   1   1.0000     -88.006052     -2394.7664    2-A'
   2   1.0000     -88.005796     -2394.7594    3-A'
   3   1.0000     -88.005541     -2394.7525    4-A'
   4   1.0000     -88.005492     -2394.7512    5-A'
   5   1.0000     -38.003267     -1034.1215    6-A'
   6   1.0000     -33.507058      -911.7734    7-A'
   7   1.0000     -33.506404      -911.7556    8-A'
   8   1.0000     -33.503242      -911.6696    1-A"
   9   1.0000      -9.836812      -267.6733    9-A'
  10   1.0000      -9.836137      -267.6549   10-A'
  11   1.0000      -9.834967      -267.6231   11-A'
  12   1.0000      -9.834406      -267.6078   12-A'
  13   1.0000      -9.819753      -267.2091   13-A'
  14   1.0000      -9.819705      -267.2078   14-A'
  15   1.0000      -9.818845      -267.1844   15-A'
  16   1.0000      -9.817730      -267.1540   16-A'
  17   1.0000      -9.810572      -266.9592   17-A'
  18   1.0000      -9.804709      -266.7997   18-A'
  19   1.0000      -9.792165      -266.4584   19-A'
  20   1.0000      -9.792159      -266.4582   20-A'
  21   1.0000      -7.574917      -206.1240   21-A'
  22   1.0000      -7.574885      -206.1231   22-A'
  23   1.0000      -7.574690      -206.1178   23-A'
  24   1.0000      -7.574410      -206.1102   24-A'
  25   1.0000      -5.498355      -149.6178   25-A'
  26   1.0000      -5.498072      -149.6101   26-A'
  27   1.0000      -5.497907      -149.6056   27-A'
  28   1.0000      -5.497880      -149.6049   28-A'
  29   1.0000      -5.491311      -149.4262   29-A'
  30   1.0000      -5.491276      -149.4252   30-A'
  31   1.0000      -5.491191      -149.4229   31-A'
  32   1.0000      -5.490921      -149.4156   32-A'
  33   1.0000      -5.490875      -149.4143    2-A"
  34   1.0000      -5.490840      -149.4133    3-A"
  35   1.0000      -5.490026      -149.3912    4-A"
  36   1.0000      -5.489746      -149.3836    5-A"
  37   1.0000      -3.983130      -108.3865   33-A'
  38   1.0000      -2.497466       -67.9595    6-A"
  39   1.0000      -2.496153       -67.9238   34-A'
  40   1.0000      -2.494921       -67.8902   35-A'
  41   1.0000      -0.602380       -16.3916   36-A'
  42   1.0000      -0.585044       -15.9199   37-A'
  43   1.0000      -0.532175       -14.4812   38-A'
  44   1.0000      -0.503910       -13.7121   39-A'
  45   1.0000      -0.498228       -13.5575   40-A'
  46   1.0000      -0.497418       -13.5354   41-A'
  47   1.0000      -0.396123       -10.7791   42-A'
  48   1.0000      -0.390574       -10.6281   43-A'
  49   1.0000      -0.387477       -10.5438   44-A'
  50   1.0000      -0.370143       -10.0721   45-A'
  51   1.0000      -0.348498        -9.4831   46-A'
  52   1.0000      -0.306133        -8.3303   47-A'
  53   1.0000      -0.285974        -7.7817   48-A'
  54   1.0000      -0.267275        -7.2729   49-A'
  55   1.0000      -0.249234        -6.7820   50-A'
  56   1.0000      -0.222418        -6.0523   51-A'
  57   1.0000      -0.196224        -5.3395   52-A'
  58   1.0000      -0.183599        -4.9960   53-A'
  59   1.0000      -0.181947        -4.9510   54-A'
  60   1.0000      -0.169369        -4.6088   55-A'
  61   1.0000      -0.161644        -4.3986   56-A'
  62   1.0000      -0.132107        -3.5948    7-A"
  63   1.0000      -0.130608        -3.5540   57-A'
  64   1.0000      -0.128352        -3.4926   58-A'
  65   1.0000      -0.112309        -3.0561    8-A"
  66   1.0000      -0.105696        -2.8761   59-A'
  67   1.0000      -0.078925        -2.1477   60-A'
  68   1.0000      -0.063963        -1.7405   61-A'
  69   1.0000      -0.062260        -1.6942    9-A"
  70   1.0000      -0.050453        -1.3729   62-A'
  71   1.0000      -0.030711        -0.8357   10-A"
  72   1.0000      -0.028644        -0.7794   11-A"
  73   1.0000      -0.027254        -0.7416   12-A"
  74   1.0000      -0.022849        -0.6218   63-A'
  75   1.0000      -0.009352        -0.2545   64-A'
  76   1.0000       0.004227         0.1150   65-A'
  77   1.0000       0.010294         0.2801   13-A"
  78   1.0000       0.015780         0.4294   66-A'
  79   1.0000       0.017999         0.4898   14-A"
  80   1.0000       0.035866         0.9760   67-A'
  81   1.0000       0.042533         1.1574   68-A'
  82   1.0000       0.049656         1.3512   69-A'
  83   1.0000       0.056123         1.5272   15-A"
  84   1.0000       0.063489         1.7276   16-A"
  85   1.0000       0.069459         1.8901   17-A"
  86   1.0000       0.093275         2.5381   18-A"
  87   0.0000       0.145007         3.9458   70-A'
  88   0.0000       0.171411         4.6643   71-A'
  89   0.0000       0.185962         5.0603   19-A"
  90   0.0000       0.186919         5.0863   72-A'
  91   0.0000       0.191251         5.2042   73-A'

MULLIKEN ATOMIC CHARGES AND SPIN POPULATIONS
--------------------------------------------
   0 Cu:    0.149306    0.374526
   1 S :   -0.432810    0.152068
   2 C :    0.057033   -0.001930
   3 S :   -0.490761    0.169284
   4 C :    0.069178   -0.011182
   5 S :   -0.434304    0.151970
   6 C :    0.054720   -0.001948
   7 S :   -0.488553    0.168964
   8 C :    0.068785   -0.011160
   9 C :   -0.136911    0.002215
  10 C :   -0.137663    0.002091
  11 C :   -0.042326   -0.000961
  12 H :    0.049605    0.001621
  13 C :   -0.042860   -0.001012
  14 H :    0.050664    0.001676
  15 H :    0.023147    0.000739
  16 H :    0.023130    0.000765
  17 C :   -0.114766   -0.003217
  18 C :   -0.113726   -0.003208
  19 C :   -0.147497   -0.000074
  20 H :    0.071250    0.002615
  21 C :   -0.146778   -0.000066
  22 H :    0.071130    0.002568
  23 H :    0.020684    0.001828
  24 H :    0.020323    0.001828
Sum of atomic charges         :   -2.0000000

LOEWDIN ATOMIC CHARGES AND SPIN POPULATIONS
-------------------------------------------
   0 Cu:   -0.898266    0.440506
   1 S :    0.018940    0.117680
   2 C :   -0.020175    0.007886
   3 S :   -0.007281    0.129215
   4 C :   -0.115457    0.001588
   5 S :    0.018391    0.117412
   6 C :   -0.020385    0.007880
   7 S :   -0.005411    0.129021
   8 C :   -0.114651    0.001585
   9 C :    0.370563    0.006504
  10 C :    0.370555    0.006443
  11 C :    0.310977    0.000083
  12 H :   -0.423746    0.004988
  13 C :    0.309886    0.000089
  14 H :   -0.424928    0.005128
  15 H :   -0.389141    0.000228
  16 H :   -0.389505    0.000241
  17 C :    0.267130    0.003219
  18 C :    0.267189    0.003221
  19 C :    0.307656    0.000692
  20 H :   -0.462250    0.007332
  21 C :    0.307964    0.000696
  22 H :   -0.461900    0.007271
  23 H :   -0.408059    0.000547
  24 H :   -0.408096    0.000549

  Mayer bond orders larger than 0.100000
B(  0-Cu,  1-S ) :   0.6844 B(  0-Cu,  3-S ) :   0.7167 B(  0-Cu,  5-S ) :   0.6840
B(  0-Cu,  7-S ) :   0.7157 B(  1-S ,  2-C ) :   1.2003 B(  2-C ,  6-C ) :   1.0579
B(  2-C , 17-C ) :   1.5004 B(  3-S ,  4-C ) :   1.0653 B(  4-C ,  8-C ) :   1.6246
B(  4-C , 10-C ) :   1.0371 B(  5-S ,  6-C ) :   1.2012 B(  6-C , 18-C ) :   1.5008
B(  7-S ,  8-C ) :   1.0683 B(  8-C ,  9-C ) :   1.0349 B(  9-C , 13-C ) :   1.6818
B(  9-C , 14-H ) :   0.9859 B( 10-C , 11-C ) :   1.6806 B( 10-C , 12-H ) :   0.9866
B( 11-C , 13-C ) :   1.0642 B( 11-C , 15-H ) :   0.9678 B( 13-C , 16-H ) :   0.9679
B( 17-C , 19-C ) :   1.1815 B( 17-C , 20-H ) :   0.9615 B( 18-C , 21-C ) :   1.1813
B( 18-C , 22-H ) :   0.9616 B( 19-C , 21-C ) :   1.5307 B( 19-C , 23-H ) :   0.9913
B( 21-C , 24-H ) :   0.9909

FINAL SINGLE POINT ENERGY     -3686.665223261042

DIPOLE MOMENT
-------------
                                X             Y             Z
Electronic contribution:     -0.07378       0.22556      -0.00000
Nuclear contribution   :     -0.24294       0.74697       0.00000
                        -----------------------------------------
Total Dipole Moment    :     -0.31671       0.97253      -0.00000
                        -----------------------------------------
Magnitude (a.u.)       :      1.02280
Magnitude (Debye)      :      2.59974

Rotational constants in cm-1:     0.033362     0.004802     0.004198
Rotational constants in MHz :  1000.182324   143.971282   125.855069

                             ****ORCA TERMINATED NORMALLY****
TOTAL RUN TIME: 0 days 6 hours 49 minutes 21 seconds 225 msec
