                         Program Version 5.0.4 -  RELEASE  -
|  1> ! RIJCOSX nofrozencore ReducedPop printbasis
|  2> ! M06L ano-rcc-dzp autoaux
|  3>
|  4> %maxcore 5000
|  5> %basis
|  6> PCDTrimBas overlap
|  7> PCDTrimAuxJ Coulomb
|  8> PCDTrimAuxJK Coulomb
|  9> PCDTrimAuxC Coulomb
| 10> PCDThresh -1
| 11> end
| 12>
| 13> %basis
| 14> newgto Cu "ano-rcc-tzp" end
| 15> newgto S "ano-rcc-tzp" end
| 16> end
| 17>
| 18> %pal
| 19> nprocs 4
| 20> end
| 21>
| 22> % sym SymThresh 1e-2 end
| 23> * xyz -2 2
| 24> Cu 0.0032208836882137064 -0.013484527079053718 -0.0017133915843337846
| 25> S 1.1064920714328468 -1.1690584030131899 -1.597868814455523
| 26> C 1.0423915047132126 -2.9110745933825815 -0.9779284154564484
| 27> S 0.33544027400165694 2.020970452404038 -1.1766093384261025
| 28> C -0.38331381157407723 3.1880995273345243 -0.2574840674254098
| 29> S -0.4098240876727275 -1.844765142111035 1.2555799362729838
| 30> C 0.3761708881454464 -3.2061755528464304 0.27526576789487145
| 31> S -1.1209196592544528 1.3691285211250497 1.564843430076893
| 32> C -1.026952367065424 2.900985551350565 0.9538195227284769
| 33> C -1.6204594378790613 3.880871904426684 1.708079728710072
| 34> C -0.31299504504424736 4.465445318779216 -0.7529097411134609
| 35> C -0.9062546149199443 5.442829966406735 0.0016458682096245365
| 36> H 0.19277938207506778 4.650873218840397 -1.6930471843524957
| 37> C -1.5474333112682683 5.154780887530449 1.2089123528933445
| 38> H -2.109391311478881 3.623169338295965 2.6397709448932085
| 39> H -0.887527891406398 6.47693877298473 -0.3325107471989021
| 40> H -1.996963355093867 5.97956108313206 1.7561281897141758
| 41> C 1.6115539527776657 -4.060731221457388 -1.64006506978012
| 42> C 0.39580003894827925 -4.600230997873757 0.6471154522478674
| 43> C 1.6068083006629308 -5.417736070834052 -1.2363082866454915
| 44> H 2.116076048890322 -3.8583856166301875 -2.5829384255725114
| 45> C 0.9683909072270459 -5.699766861962258 -0.03563330427968555
| 46> H -0.09920189383062221 -4.843487034657131 1.5852313977932981
| 47> H 2.0876463352712267 -6.168551405364099 -1.8599287979098063
| 48> H 0.8908881804155209 -6.697941124846113 0.39102554742510537
| 49> *
| 50>
| 51> % eprnmr
| 52> gtensor true
| 53> Nuclei = all H {aiso,adip,aorb,fgrad,rho}
| 54> Nuclei = all Cu {aiso,adip,aorb,fgrad,rho}
| 55> end
| 56>
| 57>                          ****END OF INPUT****

CARTESIAN COORDINATES (ANGSTROEM)
---------------------------------
  Cu    -0.000000    0.000000   -0.013968
  S     -1.650603    0.000000   -1.556088
  C     -0.724815    0.000000   -3.159382
  S     -1.585989    0.000000    1.750748
  C     -0.700707    0.000000    3.144467
  S      1.650603    0.000000   -1.556088
  C      0.724815    0.000000   -3.159382
  S      1.585989    0.000000    1.750748
  C      0.700707    0.000000    3.144467
  C      1.423697    0.000000    4.310209
  C     -1.423697    0.000000    4.310209
  C     -0.698493    0.000000    5.472554
  H     -2.506466    0.000000    4.272864
  C      0.698493    0.000000    5.472554
  H      2.506466    0.000000    4.272864
  H     -1.208371    0.000000    6.432561
  H      1.208371    0.000000    6.432561
  C     -1.322904    0.000000   -4.472910
  C      1.322904    0.000000   -4.472910
  C     -0.694394    0.000000   -5.741262
  H     -2.410991    0.000000   -4.494046
  C      0.694394    0.000000   -5.741262
  H      2.410991    0.000000   -4.494046
  H     -1.301850    0.000000   -6.644095
  H      1.301850    0.000000   -6.644095

 Total Charge           Charge          ....   -2
 Multiplicity           Mult            ....    2
 Number of Electrons    NEL             ....  175
 Basis Dimension        Dim             ....  475

ORBITAL ENERGIES
----------------
                 SPIN UP ORBITALS
  NO   OCC          E(Eh)            E(eV)    Irrep
   0   1.0000    -318.181068     -8658.1470    1-A1
   1   1.0000     -88.023604     -2395.2440    1-B1
   2   1.0000     -88.023598     -2395.2439    2-A1
   3   1.0000     -88.005207     -2394.7434    2-B1
   4   1.0000     -88.005186     -2394.7429    3-A1
   5   1.0000     -38.026350     -1034.7496    4-A1
   6   1.0000     -33.529478      -912.3835    3-B1
   7   1.0000     -33.528611      -912.3599    5-A1
   8   1.0000     -33.514895      -911.9867    1-B2
   9   1.0000      -9.850670      -268.0504    6-A1
  10   1.0000      -9.850411      -268.0433    4-B1
  11   1.0000      -9.835320      -267.6327    7-A1
  12   1.0000      -9.834874      -267.6205    5-B1
  13   1.0000      -9.827928      -267.4315    6-B1
  14   1.0000      -9.827924      -267.4314    8-A1
  15   1.0000      -9.816160      -267.1113    9-A1
  16   1.0000      -9.815756      -267.1003    7-B1
  17   1.0000      -9.814146      -267.0565   10-A1
  18   1.0000      -9.813731      -267.0452    8-B1
  19   1.0000      -9.806940      -266.8604    9-B1
  20   1.0000      -9.806935      -266.8603   11-A1
  21   1.0000      -7.589826      -206.5297   10-B1
  22   1.0000      -7.589822      -206.5296   12-A1
  23   1.0000      -7.576889      -206.1776   11-B1
  24   1.0000      -7.576869      -206.1771   13-A1
  25   1.0000      -5.513988      -150.0432   12-B1
  26   1.0000      -5.513987      -150.0432   14-A1
  27   1.0000      -5.507548      -149.8680   13-B1
  28   1.0000      -5.507548      -149.8680   15-A1
  29   1.0000      -5.505652      -149.8164    1-A2
  30   1.0000      -5.505652      -149.8164    2-B2
  31   1.0000      -5.499374      -149.6456   14-B1
  32   1.0000      -5.499374      -149.6456   16-A1
  33   1.0000      -5.494828      -149.5219   15-B1
  34   1.0000      -5.494828      -149.5219   17-A1
  35   1.0000      -5.493023      -149.4727    2-A2
  36   1.0000      -5.493022      -149.4727    3-B2
  37   1.0000      -4.023824      -109.4938   18-A1
  38   1.0000      -2.545316       -69.2616   16-B1
  39   1.0000      -2.543625       -69.2156   19-A1
  40   1.0000      -2.516341       -68.4731    4-B2
  41   1.0000      -0.600498       -16.3404   20-A1
  42   1.0000      -0.581108       -15.8128   21-A1
  43   1.0000      -0.509471       -13.8634   22-A1
  44   1.0000      -0.507097       -13.7988   17-B1
  45   1.0000      -0.498250       -13.5581   23-A1
  46   1.0000      -0.475116       -12.9286   18-B1
  47   1.0000      -0.416940       -11.3455   19-B1
  48   1.0000      -0.397825       -10.8254   20-B1
  49   1.0000      -0.387458       -10.5433   24-A1
  50   1.0000      -0.379361       -10.3229   25-A1
  51   1.0000      -0.325903        -8.8683   26-A1
  52   1.0000      -0.318006        -8.6534   27-A1
  53   1.0000      -0.306606        -8.3432   21-B1
  54   1.0000      -0.288462        -7.8495   22-B1
  55   1.0000      -0.239211        -6.5093   28-A1
  56   1.0000      -0.221741        -6.0339   29-A1
  57   1.0000      -0.196213        -5.3392   30-A1
  58   1.0000      -0.183149        -4.9837   23-B1
  59   1.0000      -0.181681        -4.9438   31-A1
  60   1.0000      -0.176423        -4.8007   24-B1
  61   1.0000      -0.143795        -3.9129   25-B1
  62   1.0000      -0.136509        -3.7146   26-B1
  63   1.0000      -0.131673        -3.5830   32-A1
  64   1.0000      -0.124839        -3.3970    5-B2
  65   1.0000      -0.111146        -3.0244   33-A1
  66   1.0000      -0.110738        -3.0133    6-B2
  67   1.0000      -0.087860        -2.3908   34-A1
  68   1.0000      -0.072023        -1.9599   27-B1
  69   1.0000      -0.060772        -1.6537   28-B1
  70   1.0000      -0.060748        -1.6530   35-A1
  71   1.0000      -0.038406        -1.0451    7-B2
  72   1.0000      -0.036739        -0.9997    8-B2
  73   1.0000      -0.032446        -0.8829    3-A2
  74   1.0000      -0.031713        -0.8630   29-B1
  75   1.0000      -0.028751        -0.7824   36-A1
  76   1.0000      -0.015750        -0.4286    4-A2
  77   1.0000      -0.001063        -0.0289    5-A2
  78   1.0000      -0.000902        -0.0245   37-A1
  79   1.0000       0.001376         0.0374    9-B2
  80   1.0000       0.017817         0.4848   38-A1
  81   1.0000       0.022182         0.6036   39-A1
  82   1.0000       0.035382         0.9628   30-B1
  83   1.0000       0.050793         1.3821    6-A2
  84   1.0000       0.052937         1.4405    7-A2
  85   1.0000       0.059387         1.6160   10-B2
  86   1.0000       0.091603         2.4926   11-B2
  87   1.0000       0.106284         2.8921   31-B1
  88   0.0000       0.177863         4.8399   40-A1
  89   0.0000       0.184605         5.0233   41-A1
  90   0.0000       0.194113         5.2821   32-B1
  91   0.0000       0.194471         5.2918   12-B2
  92   0.0000       0.198232         5.3942    8-A2

                 SPIN DOWN ORBITALS
  NO   OCC          E(Eh)            E(eV)    Irrep
   0   1.0000    -318.180895     -8658.1423    1-A1
   1   1.0000     -88.022601     -2395.2167    1-B1
   2   1.0000     -88.022595     -2395.2166    2-A1
   3   1.0000     -88.004046     -2394.7118    2-B1
   4   1.0000     -88.004025     -2394.7113    3-A1
   5   1.0000     -38.010638     -1034.3221    4-A1
   6   1.0000     -33.514464      -911.9749    3-B1
   7   1.0000     -33.513636      -911.9524    5-A1
   8   1.0000     -33.510608      -911.8700    1-B2
   9   1.0000      -9.850823      -268.0545    6-A1
  10   1.0000      -9.850564      -268.0475    4-B1
  11   1.0000      -9.835314      -267.6325    7-A1
  12   1.0000      -9.834868      -267.6204    5-B1
  13   1.0000      -9.827895      -267.4306    6-B1
  14   1.0000      -9.827891      -267.4305    8-A1
  15   1.0000      -9.816236      -267.1134    9-A1
  16   1.0000      -9.815831      -267.1023    7-B1
  17   1.0000      -9.814098      -267.0552   10-A1
  18   1.0000      -9.813683      -267.0439    8-B1
  19   1.0000      -9.806842      -266.8577    9-B1
  20   1.0000      -9.806836      -266.8576   11-A1
  21   1.0000      -7.589141      -206.5110   10-B1
  22   1.0000      -7.589137      -206.5109   12-A1
  23   1.0000      -7.576098      -206.1561   11-B1
  24   1.0000      -7.576079      -206.1556   13-A1
  25   1.0000      -5.513149      -150.0204   12-B1
  26   1.0000      -5.513148      -150.0204   14-A1
  27   1.0000      -5.505424      -149.8102   13-B1
  28   1.0000      -5.505424      -149.8102   15-A1
  29   1.0000      -5.504884      -149.7955    1-A2
  30   1.0000      -5.504884      -149.7955    2-B2
  31   1.0000      -5.498308      -149.6166   14-B1
  32   1.0000      -5.498307      -149.6165   16-A1
  33   1.0000      -5.492449      -149.4571   15-B1
  34   1.0000      -5.492448      -149.4571   17-A1
  35   1.0000      -5.492145      -149.4489    2-A2
  36   1.0000      -5.492144      -149.4488    3-B2
  37   1.0000      -3.990554      -108.5885   18-A1
  38   1.0000      -2.504740       -68.1574    4-B2
  39   1.0000      -2.503801       -68.1319   16-B1
  40   1.0000      -2.502109       -68.0859   19-A1
  41   1.0000      -0.599774       -16.3207   20-A1
  42   1.0000      -0.580992       -15.8096   21-A1
  43   1.0000      -0.507881       -13.8201   22-A1
  44   1.0000      -0.505431       -13.7535   17-B1
  45   1.0000      -0.497354       -13.5337   23-A1
  46   1.0000      -0.474583       -12.9141   18-B1
  47   1.0000      -0.413287       -11.2461   19-B1
  48   1.0000      -0.393397       -10.7049   20-B1
  49   1.0000      -0.384022       -10.4498   24-A1
  50   1.0000      -0.376384       -10.2419   25-A1
  51   1.0000      -0.324394        -8.8272   26-A1
  52   1.0000      -0.316745        -8.6191   27-A1
  53   1.0000      -0.304931        -8.2976   21-B1
  54   1.0000      -0.286087        -7.7848   22-B1
  55   1.0000      -0.238877        -6.5002   28-A1
  56   1.0000      -0.220715        -6.0060   29-A1
  57   1.0000      -0.194870        -5.3027   30-A1
  58   1.0000      -0.182567        -4.9679   23-B1
  59   1.0000      -0.181064        -4.9270   31-A1
  60   1.0000      -0.175676        -4.7804   24-B1
  61   1.0000      -0.142039        -3.8651   25-B1
  62   1.0000      -0.135948        -3.6993   26-B1
  63   1.0000      -0.130437        -3.5494   32-A1
  64   1.0000      -0.124426        -3.3858    5-B2
  65   1.0000      -0.110755        -3.0138    6-B2
  66   1.0000      -0.110243        -2.9999   33-A1
  67   1.0000      -0.086431        -2.3519   34-A1
  68   1.0000      -0.068128        -1.8539   27-B1
  69   1.0000      -0.058819        -1.6005   35-A1
  70   1.0000      -0.048229        -1.3124   28-B1
  71   1.0000      -0.036594        -0.9958    7-B2
  72   1.0000      -0.035756        -0.9730    8-B2
  73   1.0000      -0.030493        -0.8297    3-A2
  74   1.0000      -0.022018        -0.5992   36-A1
  75   1.0000      -0.012281        -0.3342    4-A2
  76   1.0000      -0.004027        -0.1096   29-B1
  77   1.0000       0.006862         0.1867    5-A2
  78   1.0000       0.009287         0.2527   37-A1
  79   1.0000       0.013316         0.3624    9-B2
  80   1.0000       0.028294         0.7699   38-A1
  81   1.0000       0.034574         0.9408   39-A1
  82   1.0000       0.044247         1.2040   30-B1
  83   1.0000       0.053634         1.4595    6-A2
  84   1.0000       0.058652         1.5960    7-A2
  85   1.0000       0.061763         1.6807   10-B2
  86   1.0000       0.095465         2.5977   11-B2
  87   0.0000       0.138861         3.7786   31-B1
  88   0.0000       0.178649         4.8613   40-A1
  89   0.0000       0.186419         5.0727   41-A1
  90   0.0000       0.194413         5.2902   12-B2
  91   0.0000       0.195472         5.3191   32-B1

MULLIKEN ATOMIC CHARGES AND SPIN POPULATIONS
--------------------------------------------
   0 Cu:    0.141664    0.371188
   1 S :   -0.421369    0.156372
   2 C :    0.003139   -0.008647
   3 S :   -0.408686    0.171685
   4 C :    0.031474   -0.007082
   5 S :   -0.421369    0.156372
   6 C :    0.003139   -0.008647
   7 S :   -0.408686    0.171685
   8 C :    0.031474   -0.007082
   9 C :   -0.090012   -0.001167
  10 C :   -0.090012   -0.001167
  11 C :   -0.134341   -0.000592
  12 H :    0.041675    0.002725
  13 C :   -0.134341   -0.000592
  14 H :    0.041675    0.002725
  15 H :    0.030967    0.001723
  16 H :    0.030967    0.001723
  17 C :   -0.102203   -0.001946
  18 C :   -0.102203   -0.001946
  19 C :   -0.135815   -0.001065
  20 H :    0.086400    0.001625
  21 C :   -0.135815   -0.001065
  22 H :    0.086400    0.001625
  23 H :    0.027939    0.000775
  24 H :    0.027939    0.000775
Sum of atomic charges         :   -2.0000000

LOEWDIN ATOMIC CHARGES AND SPIN POPULATIONS
-------------------------------------------
   0 Cu:   -0.904394    0.438537
   1 S :   -0.003181    0.120250
   2 C :    0.013782    0.002083
   3 S :    0.024380    0.129450
   4 C :   -0.087148    0.007825
   5 S :   -0.003181    0.120250
   6 C :    0.013782    0.002083
   7 S :    0.024380    0.129450
   8 C :   -0.087148    0.007825
   9 C :    0.304256    0.006327
  10 C :    0.304256    0.006327
  11 C :    0.311059    0.000440
  12 H :   -0.435447    0.007323
  13 C :    0.311059    0.000440
  14 H :   -0.435447    0.007323
  15 H :   -0.423437    0.000513
  16 H :   -0.423437    0.000513
  17 C :    0.312181    0.002019
  18 C :    0.312181    0.002019
  19 C :    0.311145   -0.000452
  20 H :   -0.463752    0.004894
  21 C :    0.311145   -0.000452
  22 H :   -0.463752    0.004894
  23 H :   -0.411640    0.000060
  24 H :   -0.411640    0.000060

  Mayer bond orders larger than 0.100000
B(  0-Cu,  1-S ) :   0.7448 B(  0-Cu,  3-S ) :   0.6626 B(  0-Cu,  5-S ) :   0.7448
B(  0-Cu,  7-S ) :   0.6626 B(  1-S ,  2-C ) :   1.1321 B(  2-C ,  6-C ) :   1.2568
B(  2-C , 17-C ) :   1.3301 B(  3-S ,  4-C ) :   1.2357 B(  4-C ,  8-C ) :   1.2338
B(  4-C , 10-C ) :   1.3007 B(  5-S ,  6-C ) :   1.1321 B(  6-C , 18-C ) :   1.3301
B(  7-S ,  8-C ) :   1.2357 B(  8-C ,  9-C ) :   1.3007 B(  9-C , 13-C ) :   1.3643
B(  9-C , 14-H ) :   0.9802 B( 10-C , 11-C ) :   1.3643 B( 10-C , 12-H ) :   0.9802
B( 11-C , 13-C ) :   1.3324 B( 11-C , 15-H ) :   0.9879 B( 13-C , 16-H ) :   0.9879
B( 17-C , 19-C ) :   1.3595 B( 17-C , 20-H ) :   0.9616 B( 18-C , 21-C ) :   1.3595
B( 18-C , 22-H ) :   0.9616 B( 19-C , 21-C ) :   1.3416 B( 19-C , 23-H ) :   0.9916
B( 21-C , 24-H ) :   0.9916

FINAL SINGLE POINT ENERGY     -3686.883879652340

DIPOLE MOMENT
-------------
                                X             Y             Z
Electronic contribution:     -0.00000      -0.00000       0.62477
Nuclear contribution   :      0.00000       0.00000      -0.75072
                        -----------------------------------------
Total Dipole Moment    :     -0.00000      -0.00000      -0.12595
                        -----------------------------------------
Magnitude (a.u.)       :      0.12595
Magnitude (Debye)      :      0.32014

Rotational constants in cm-1:     0.033370     0.004793     0.004191
Rotational constants in MHz :  1000.409943   143.688973   125.642875

                             ****ORCA TERMINATED NORMALLY****
TOTAL RUN TIME: 0 days 5 hours 28 minutes 39 seconds 136 msec
