                         Program Version 5.0.4 -  RELEASE  -
|  1> ! RIJCOSX nofrozencore ReducedPop printbasis
|  2> ! M06L ano-rcc-dzp autoaux
|  3>
|  4> %maxcore 5000
|  5> %basis
|  6> PCDTrimBas overlap
|  7> PCDTrimAuxJ Coulomb
|  8> PCDTrimAuxJK Coulomb
|  9> PCDTrimAuxC Coulomb
| 10> PCDThresh -1
| 11> end
| 12>
| 13> %basis
| 14> newgto Cu "ano-rcc-tzp" end
| 15> newgto S "ano-rcc-tzp" end
| 16> end
| 17>
| 18> %pal
| 19> nprocs 12
| 20> end
| 21>
| 22> % sym SymThresh 1e-2 end
| 23> * xyz -2 2
| 24> Cu -0.06477751771235633 -0.10951257879085212 0.05847693096942387
| 25> S 0.9880217340316263 2.134311180940583 0.9357299325607547
| 26> C 1.5177695902651223 2.747974534979505 -0.653052639990542
| 27> S -0.5940340193083993 -0.6567913109616601 1.9050455183587012
| 28> C -1.4004343359944125 -2.191162959485894 1.959114290415418
| 29> S 0.6184344009496922 0.5820204757371717 -2.384105609772703
| 30> C 1.3730220993885238 2.1397879548162737 -1.9541903266199327
| 31> S -0.8710368744659807 -1.8201627117581336 -0.5829151355641857
| 32> C -1.5414549929208006 -2.7828316545111726 0.6948602352812712
| 33> C -2.1693748283285665 -4.0213119158780195 0.5647763383870278
| 34> C -1.8878587520262717 -2.838629691631342 3.094675636739295
| 35> C -2.5143810668816577 -4.075733772589917 2.9594442874859164
| 36> H -1.7743225574244357 -2.373524382563322 4.068218353968013
| 37> C -2.654737614952735 -4.6644997902743635 1.7016022358361202
| 38> H -2.272987088597471 -4.469643592603319 -0.41773973971635386
| 39> H -2.896362010542648 -4.585778477263921 3.8389405999999977
| 40> H -3.14492371566444 -5.6291199968089165 1.6087197777706188
| 41> C 2.1645692597844777 4.00069909495412 -0.6096329779460423
| 42> C 1.892750010223954 2.8591439257102897 -3.0508553619410037
| 43> C 2.6623862446301167 4.676299178411641 -1.712963529144724
| 44> H 2.2690848179038534 4.450717675023333 0.37269711332546385
| 45> C 2.522965282691052 4.090612603112565 -2.9657502626853636
| 46> H 1.7788630349084145 2.393287407873615 -4.024704520480234
| 47> H 3.1478238704322683 5.640140958036099 -1.5872379778238828
| 48> H 2.894343219736629 4.575458635651252 -3.8643257074996904
| 49> *
| 50>
| 51> % eprnmr
| 52> gtensor true
| 53> Nuclei = all H {aiso,adip,aorb,fgrad,rho}
| 54> Nuclei = all Cu {aiso,adip,aorb,fgrad,rho}
| 55> end
| 56>
| 57>                          ****END OF INPUT****

CARTESIAN COORDINATES (ANGSTROEM)
---------------------------------
  Cu    -0.000000    0.000000   -0.140031
  S      1.841705    0.000000    1.736156
  C      0.721769    0.000000    3.124284
  S      1.380228    0.000000   -1.583490
  C      0.701480    0.000000   -3.179580
  S     -1.841705    0.000000    1.736156
  C     -0.721769    0.000000    3.124284
  S     -1.380228    0.000000   -1.583490
  C     -0.701480    0.000000   -3.179580
  C     -1.403423    0.000000   -4.384961
  C      1.403423    0.000000   -4.384961
  C      0.697945    0.000000   -5.586520
  H      2.488283    0.000000   -4.374233
  C     -0.697945    0.000000   -5.586520
  H     -2.488283    0.000000   -4.374233
  H      1.237359    0.000000   -6.529133
  H     -1.237359    0.000000   -6.529133
  C      1.354308    0.000000    4.385158
  C     -1.354308    0.000000    4.385158
  C      0.694972    0.000000    5.604395
  H      2.439799    0.000000    4.375027
  C     -0.694972    0.000000    5.604395
  H     -2.439799    0.000000    4.375027
  H      1.263223    0.000000    6.530425
  H     -1.263223    0.000000    6.530425

 Total Charge           Charge          ....   -2
 Multiplicity           Mult            ....    2
 Number of Electrons    NEL             ....  175
 Basis Dimension        Dim             ....  475

ORBITAL ENERGIES
----------------
                 SPIN UP ORBITALS
  NO   OCC          E(Eh)            E(eV)    Irrep
   0   1.0000    -318.195202     -8658.5316    1-A1
   1   1.0000     -88.027640     -2395.3539    1-B1
   2   1.0000     -88.027625     -2395.3535    2-A1
   3   1.0000     -88.003616     -2394.7001    2-B1
   4   1.0000     -88.003611     -2394.7000    3-A1
   5   1.0000     -38.041128     -1035.1517    4-A1
   6   1.0000     -33.543886      -912.7756    3-B1
   7   1.0000     -33.542244      -912.7309    5-A1
   8   1.0000     -33.530818      -912.4200    1-B2
   9   1.0000      -9.836694      -267.6700    6-A1
  10   1.0000      -9.836298      -267.6593    4-B1
  11   1.0000      -9.834839      -267.6196    7-A1
  12   1.0000      -9.834420      -267.6082    5-B1
  13   1.0000      -9.830917      -267.5129    8-A1
  14   1.0000      -9.830644      -267.5054    6-B1
  15   1.0000      -9.829706      -267.4799    7-B1
  16   1.0000      -9.829702      -267.4798    9-A1
  17   1.0000      -9.814721      -267.0721   10-A1
  18   1.0000      -9.814279      -267.0601    8-B1
  19   1.0000      -9.806032      -266.8357    9-B1
  20   1.0000      -9.806028      -266.8356   11-A1
  21   1.0000      -7.597935      -206.7503   10-B1
  22   1.0000      -7.597924      -206.7500   12-A1
  23   1.0000      -7.571272      -206.0248   11-B1
  24   1.0000      -7.571265      -206.0246   13-A1
  25   1.0000      -5.520672      -150.2251   12-B1
  26   1.0000      -5.520672      -150.2251   14-A1
  27   1.0000      -5.516529      -150.1124   15-A1
  28   1.0000      -5.516526      -150.1123   13-B1
  29   1.0000      -5.513767      -150.0372    1-A2
  30   1.0000      -5.513767      -150.0372    2-B2
  31   1.0000      -5.494818      -149.5216   14-B1
  32   1.0000      -5.494817      -149.5216   16-A1
  33   1.0000      -5.488859      -149.3595   15-B1
  34   1.0000      -5.488859      -149.3594   17-A1
  35   1.0000      -5.487293      -149.3168    2-A2
  36   1.0000      -5.487293      -149.3168    3-B2
  37   1.0000      -4.038382      -109.8900   18-A1
  38   1.0000      -2.559565       -69.6493   16-B1
  39   1.0000      -2.557439       -69.5915   19-A1
  40   1.0000      -2.532021       -68.8998    4-B2
  41   1.0000      -0.604709       -16.4550   20-A1
  42   1.0000      -0.577016       -15.7014   21-A1
  43   1.0000      -0.525728       -14.3058   22-A1
  44   1.0000      -0.500268       -13.6130   17-B1
  45   1.0000      -0.487052       -13.2533   23-A1
  46   1.0000      -0.478579       -13.0228   18-B1
  47   1.0000      -0.419119       -11.4048   19-B1
  48   1.0000      -0.413642       -11.2558   24-A1
  49   1.0000      -0.393893       -10.7184   20-B1
  50   1.0000      -0.362095        -9.8531   25-A1
  51   1.0000      -0.333388        -9.0719   26-A1
  52   1.0000      -0.313330        -8.5262   21-B1
  53   1.0000      -0.311883        -8.4868   27-A1
  54   1.0000      -0.285819        -7.7775   22-B1
  55   1.0000      -0.244711        -6.6589   28-A1
  56   1.0000      -0.221868        -6.0373   29-A1
  57   1.0000      -0.203095        -5.5265   30-A1
  58   1.0000      -0.193255        -5.2587   23-B1
  59   1.0000      -0.176560        -4.8044   31-A1
  60   1.0000      -0.163622        -4.4524   24-B1
  61   1.0000      -0.160915        -4.3787   25-B1
  62   1.0000      -0.146358        -3.9826   32-A1
  63   1.0000      -0.133150        -3.6232   26-B1
  64   1.0000      -0.131736        -3.5847    5-B2
  65   1.0000      -0.107225        -2.9178   33-A1
  66   1.0000      -0.104747        -2.8503    6-B2
  67   1.0000      -0.101154        -2.7525   34-A1
  68   1.0000      -0.096363        -2.6222   27-B1
  69   1.0000      -0.062072        -1.6891    7-B2
  70   1.0000      -0.061543        -1.6747   35-A1
  71   1.0000      -0.052671        -1.4333   28-B1
  72   1.0000      -0.050661        -1.3786   36-A1
  73   1.0000      -0.041651        -1.1334    3-A2
  74   1.0000      -0.031771        -0.8645   29-B1
  75   1.0000      -0.023835        -0.6486    8-B2
  76   1.0000      -0.019394        -0.5277    4-A2
  77   1.0000      -0.013402        -0.3647    9-B2
  78   1.0000      -0.010389        -0.2827   37-A1
  79   1.0000      -0.008117        -0.2209    5-A2
  80   1.0000       0.012043         0.3277   38-A1
  81   1.0000       0.031478         0.8566   39-A1
  82   1.0000       0.047684         1.2976   30-B1
  83   1.0000       0.049291         1.3413    6-A2
  84   1.0000       0.055742         1.5168   10-B2
  85   1.0000       0.059016         1.6059    7-A2
  86   1.0000       0.090757         2.4696   11-B2
  87   1.0000       0.114003         3.1022   31-B1
  88   0.0000       0.175119         4.7652   40-A1
  89   0.0000       0.186628         5.0784   41-A1
  90   0.0000       0.189688         5.1617   12-B2
  91   0.0000       0.190440         5.1821   32-B1
  92   0.0000       0.201682         5.4880    8-A2

                 SPIN DOWN ORBITALS
  NO   OCC          E(Eh)            E(eV)    Irrep
   0   1.0000    -318.194966     -8658.5252    1-A1
   1   1.0000     -88.026053     -2395.3107    1-B1
   2   1.0000     -88.026039     -2395.3103    2-A1
   3   1.0000     -88.002921     -2394.6812    2-B1
   4   1.0000     -88.002917     -2394.6811    3-A1
   5   1.0000     -38.027885     -1034.7913    4-A1
   6   1.0000     -33.531073      -912.4269    3-B1
   7   1.0000     -33.529630      -912.3876    5-A1
   8   1.0000     -33.527106      -912.3189    1-B2
   9   1.0000      -9.836860      -267.6746    6-A1
  10   1.0000      -9.836463      -267.6638    4-B1
  11   1.0000      -9.834831      -267.6194    7-A1
  12   1.0000      -9.834413      -267.6080    5-B1
  13   1.0000      -9.831007      -267.5153    8-A1
  14   1.0000      -9.830733      -267.5079    6-B1
  15   1.0000      -9.829668      -267.4789    7-B1
  16   1.0000      -9.829664      -267.4788    9-A1
  17   1.0000      -9.814702      -267.0716   10-A1
  18   1.0000      -9.814260      -267.0596    8-B1
  19   1.0000      -9.805990      -266.8345    9-B1
  20   1.0000      -9.805985      -266.8344   11-A1
  21   1.0000      -7.596836      -206.7204   10-B1
  22   1.0000      -7.596826      -206.7201   12-A1
  23   1.0000      -7.570797      -206.0119   11-B1
  24   1.0000      -7.570791      -206.0117   13-A1
  25   1.0000      -5.519265      -150.1868   12-B1
  26   1.0000      -5.519265      -150.1868   14-A1
  27   1.0000      -5.513222      -150.0224   15-A1
  28   1.0000      -5.513220      -150.0223   13-B1
  29   1.0000      -5.512542      -150.0039    1-A2
  30   1.0000      -5.512542      -150.0039    2-B2
  31   1.0000      -5.494246      -149.5060   14-B1
  32   1.0000      -5.494245      -149.5060   16-A1
  33   1.0000      -5.487357      -149.3186   15-B1
  34   1.0000      -5.487356      -149.3186   17-A1
  35   1.0000      -5.486770      -149.3026    2-A2
  36   1.0000      -5.486770      -149.3026    3-B2
  37   1.0000      -4.011605      -109.1613   18-A1
  38   1.0000      -2.526034       -68.7369   16-B1
  39   1.0000      -2.524077       -68.6836   19-A1
  40   1.0000      -2.522161       -68.6315    4-B2
  41   1.0000      -0.604037       -16.4367   20-A1
  42   1.0000      -0.576853       -15.6970   21-A1
  43   1.0000      -0.523229       -14.2378   22-A1
  44   1.0000      -0.499131       -13.5821   17-B1
  45   1.0000      -0.486403       -13.2357   23-A1
  46   1.0000      -0.477938       -13.0053   18-B1
  47   1.0000      -0.412472       -11.2239   19-B1
  48   1.0000      -0.409494       -11.1429   24-A1
  49   1.0000      -0.391464       -10.6523   20-B1
  50   1.0000      -0.359759        -9.7895   25-A1
  51   1.0000      -0.331520        -9.0211   26-A1
  52   1.0000      -0.311039        -8.4638   27-A1
  53   1.0000      -0.310563        -8.4508   21-B1
  54   1.0000      -0.284417        -7.7394   22-B1
  55   1.0000      -0.243767        -6.6332   28-A1
  56   1.0000      -0.221439        -6.0256   29-A1
  57   1.0000      -0.201487        -5.4828   30-A1
  58   1.0000      -0.192102        -5.2274   23-B1
  59   1.0000      -0.176085        -4.7915   31-A1
  60   1.0000      -0.162926        -4.4334   24-B1
  61   1.0000      -0.158445        -4.3115   25-B1
  62   1.0000      -0.144422        -3.9299   32-A1
  63   1.0000      -0.132582        -3.6077   26-B1
  64   1.0000      -0.131257        -3.5717    5-B2
  65   1.0000      -0.105884        -2.8813   33-A1
  66   1.0000      -0.104683        -2.8486    6-B2
  67   1.0000      -0.098706        -2.6859   34-A1
  68   1.0000      -0.085755        -2.3335   27-B1
  69   1.0000      -0.058895        -1.6026    7-B2
  70   1.0000      -0.057055        -1.5525   35-A1
  71   1.0000      -0.046746        -1.2720   36-A1
  72   1.0000      -0.044134        -1.2010   28-B1
  73   1.0000      -0.035923        -0.9775    3-A2
  74   1.0000      -0.022147        -0.6026    8-B2
  75   1.0000      -0.014719        -0.4005    4-A2
  76   1.0000      -0.013325        -0.3626   29-B1
  77   1.0000      -0.006650        -0.1810    5-A2
  78   1.0000      -0.006264        -0.1705    9-B2
  79   1.0000       0.001315         0.0358   37-A1
  80   1.0000       0.024130         0.6566   38-A1
  81   1.0000       0.035617         0.9692   39-A1
  82   1.0000       0.055223         1.5027   30-B1
  83   1.0000       0.055725         1.5164    6-A2
  84   1.0000       0.059911         1.6303   10-B2
  85   1.0000       0.061067         1.6617    7-A2
  86   1.0000       0.093480         2.5437   11-B2
  87   0.0000       0.142464         3.8766   31-B1
  88   0.0000       0.176982         4.8159   40-A1
  89   0.0000       0.187546         5.1034   41-A1
  90   0.0000       0.189657         5.1608   12-B2
  91   0.0000       0.193077         5.2539   32-B1

MULLIKEN ATOMIC CHARGES AND SPIN POPULATIONS
--------------------------------------------
   0 Cu:    0.169401    0.324858
   1 S :   -0.538782    0.103675
   2 C :   -0.011117   -0.006125
   3 S :   -0.325844    0.250627
   4 C :    0.052033   -0.010347
   5 S :   -0.538782    0.103675
   6 C :   -0.011117   -0.006125
   7 S :   -0.325844    0.250627
   8 C :    0.052033   -0.010347
   9 C :   -0.125955   -0.003289
  10 C :   -0.125955   -0.003289
  11 C :   -0.132725   -0.002100
  12 H :    0.054828    0.002560
  13 C :   -0.132725   -0.002100
  14 H :    0.054828    0.002560
  15 H :    0.038017    0.001363
  16 H :    0.038017    0.001363
  17 C :   -0.057980   -0.000825
  18 C :   -0.057980   -0.000825
  19 C :   -0.141611   -0.000446
  20 H :    0.078283    0.001810
  21 C :   -0.141611   -0.000446
  22 H :    0.078283    0.001810
  23 H :    0.026152    0.000667
  24 H :    0.026152    0.000667
Sum of atomic charges         :   -2.0000000

LOEWDIN ATOMIC CHARGES AND SPIN POPULATIONS
-------------------------------------------
   0 Cu:   -0.881351    0.394506
   1 S :   -0.062666    0.084555
   2 C :   -0.034304    0.001989
   3 S :    0.048852    0.189325
   4 C :   -0.013012    0.008060
   5 S :   -0.062666    0.084555
   6 C :   -0.034304    0.001989
   7 S :    0.048852    0.189325
   8 C :   -0.013012    0.008060
   9 C :    0.319629    0.003382
  10 C :    0.319629    0.003382
  11 C :    0.315959   -0.000970
  12 H :   -0.422703    0.007626
  13 C :    0.315959   -0.000970
  14 H :   -0.422703    0.007626
  15 H :   -0.418391    0.000105
  16 H :   -0.418391    0.000105
  17 C :    0.295191    0.002966
  18 C :    0.295191    0.002966
  19 C :    0.308556    0.000053
  20 H :   -0.479367    0.005548
  21 C :    0.308556    0.000053
  22 H :   -0.479367    0.005548
  23 H :   -0.417069    0.000106
  24 H :   -0.417069    0.000106

  Mayer bond orders larger than 0.100000
B(  0-Cu,  1-S ) :   0.4988 B(  0-Cu,  3-S ) :   1.0144 B(  0-Cu,  5-S ) :   0.4988
B(  0-Cu,  7-S ) :   1.0144 B(  1-S ,  2-C ) :   1.1644 B(  2-C ,  6-C ) :   1.2673
B(  2-C , 17-C ) :   1.3102 B(  3-S ,  4-C ) :   1.1758 B(  4-C ,  8-C ) :   1.2185
B(  4-C , 10-C ) :   1.3279 B(  5-S ,  6-C ) :   1.1644 B(  6-C , 18-C ) :   1.3102
B(  7-S ,  8-C ) :   1.1758 B(  8-C ,  9-C ) :   1.3279 B(  9-C , 13-C ) :   1.3630
B(  9-C , 14-H ) :   0.9761 B( 10-C , 11-C ) :   1.3630 B( 10-C , 12-H ) :   0.9761
B( 11-C , 13-C ) :   1.3438 B( 11-C , 15-H ) :   0.9848 B( 13-C , 16-H ) :   0.9848
B( 17-C , 19-C ) :   1.3688 B( 17-C , 20-H ) :   0.9617 B( 18-C , 21-C ) :   1.3688
B( 18-C , 22-H ) :   0.9617 B( 19-C , 21-C ) :   1.3291 B( 19-C , 23-H ) :   0.9908
B( 21-C , 24-H ) :   0.9908

FINAL SINGLE POINT ENERGY     -3686.865079358037

DIPOLE MOMENT
-------------
                                X             Y             Z
Electronic contribution:     -0.00000       0.00000      -2.01541
Nuclear contribution   :      0.00000       0.00000       0.72170
                        -----------------------------------------
Total Dipole Moment    :     -0.00000       0.00000      -1.29372
                        -----------------------------------------
Magnitude (a.u.)       :      1.29372
Magnitude (Debye)      :      3.28837

Rotational constants in cm-1:     0.033091     0.004803     0.004194
Rotational constants in MHz :   992.036614   143.992633   125.741449

                             ****ORCA TERMINATED NORMALLY****
TOTAL RUN TIME: 0 days 6 hours 2 minutes 9 seconds 263 msec
