                         Program Version 5.0.4 -  RELEASE  -
|  1> ! RIJCOSX nofrozencore ReducedPop printbasis
|  2> ! M06L ano-rcc-dzp autoaux
|  3>
|  4> %maxcore 5000
|  5> %basis
|  6> PCDTrimBas overlap
|  7> PCDTrimAuxJ Coulomb
|  8> PCDTrimAuxJK Coulomb
|  9> PCDTrimAuxC Coulomb
| 10> PCDThresh -1
| 11> end
| 12>
| 13> %basis
| 14> newgto Cu "ano-rcc-tzp" end
| 15> newgto S "ano-rcc-tzp" end
| 16> end
| 17>
| 18> %pal
| 19> nprocs 12
| 20> end
| 21>
| 22> % sym SymThresh 1e-2 end
| 23> * xyz -2 2
| 24> Cu -2.712408786387277e-07 -2.460539720563124e-06 4.457821516086803e-06
| 25> S 0.05714235140754085 -1.0384444141661928 -2.0713580285186457
| 26> C 0.14820640046772682 0.27180633939265747 -3.2158625058468164
| 27> S -0.11190527566856932 -2.040647295933225 1.0933268570335943
| 28> C -0.17232201566301558 -1.6286085006658435 2.7845319233023327
| 29> S 0.11190505520431801 2.0406604806806086 -1.0933121902741718
| 30> C 0.17233639233037829 1.6285701278361189 -2.7848909592857307
| 31> S -0.05714318201022451 1.0384232931364352 2.07136179842596
| 32> C -0.14818522700387135 -0.2715623184668316 3.215552301926487
| 33> C -0.19936851393522734 0.010154397421893878 4.59930917676136
| 34> C -0.24677237190031914 -2.6552083262678514 3.752676645195742
| 35> C -0.29542432962087983 -2.3360732149340437 5.105344578656839
| 36> H -0.26014264857236435 -3.434032725562104 3.4942051179617755
| 37> C -0.2721755122991383 -1.0290310455062066 5.520450297288266
| 38> H -0.18490215654099312 0.7964326372709348 4.837956395860255
| 39> H -0.36489811113823817 -3.326992810651882 5.984816498105137
| 40> H -0.3186506256255958 -0.7252262553637533 6.811831027112277
| 41> C 0.1995373313731267 0.00017661311094182308 -4.595683941452708
| 42> C 0.2465687845257649 2.644608096430921 -3.7556968441271334
| 43> C 0.272517155058754 1.0261668102929264 -5.530402220412356
| 44> H 0.1826815374106114 -0.9206603716737997 -4.8771581891458835
| 45> C 0.2959607083120484 2.3441428964913826 -5.111829750856773
| 46> H 0.26235727810495085 3.5592078345844747 -3.4541763673283756
| 47> H 0.31449155935672995 0.7531288067903447 -6.69574512608783
| 48> H 0.3586421670316182 3.2372823524086427 -5.905971711453622
| 49> *
| 50>
| 51> % eprnmr
| 52> gtensor true
| 53> Nuclei = all H {aiso,adip,aorb,fgrad,rho}
| 54> Nuclei = all Cu {aiso,adip,aorb,fgrad,rho}
| 55> end
| 56>
| 57>                          ****END OF INPUT****

CARTESIAN COORDINATES (ANGSTROEM)
---------------------------------
  Cu     0.000000   -0.000000    0.000005
  S      0.000000   -1.615585   -1.661938
  C      0.000000   -0.711886   -3.151318
  S      0.000000   -1.615567    1.661948
  C      0.000000   -0.712028    3.150967
  S      0.000000    1.615585   -1.661938
  C      0.000000    0.711886   -3.151318
  S      0.000000    1.615567    1.661948
  C      0.000000    0.712028    3.150967
  C      0.000000    1.398498    4.386086
  C      0.000000   -1.398498    4.386086
  C      0.000000   -0.685787    5.580179
  H      0.000000   -2.219694    4.375498
  C      0.000000    0.685787    5.580179
  H      0.000000    2.219694    4.375498
  H      0.000000   -1.365218    6.720154
  H      0.000000    1.365218    6.720154
  C      0.000000   -1.387516   -4.385757
  C      0.000000    1.387516   -4.385757
  C      0.000000   -0.691523   -5.588812
  H      0.000000   -2.350555   -4.375247
  C      0.000000    0.691523   -5.588812
  H      0.000000    2.350555   -4.375247
  H      0.000000   -1.303525   -6.617775
  H      0.000000    1.303525   -6.617775

 Total Charge           Charge          ....   -2
 Multiplicity           Mult            ....    2
 Number of Electrons    NEL             ....  175
 Basis Dimension        Dim             ....  475

ORBITAL ENERGIES
----------------
                 SPIN UP ORBITALS
  NO   OCC          E(Eh)            E(eV)    Irrep
   0   1.0000    -318.183966     -8658.2259    1-A1
   1   1.0000     -88.016413     -2395.0484    1-B2
   2   1.0000     -88.016406     -2395.0482    2-A1
   3   1.0000     -88.016212     -2395.0429    2-B2
   4   1.0000     -88.016198     -2395.0425    3-A1
   5   1.0000     -38.029141     -1034.8255    4-A1
   6   1.0000     -33.532312      -912.4606    3-B2
   7   1.0000     -33.531464      -912.4375    5-A1
   8   1.0000     -33.517612      -912.0606    1-B1
   9   1.0000      -9.847757      -267.9711    6-A1
  10   1.0000      -9.847238      -267.9570    4-B2
  11   1.0000      -9.835826      -267.6464    7-A1
  12   1.0000      -9.835458      -267.6364    8-A1
  13   1.0000      -9.835357      -267.6337    5-B2
  14   1.0000      -9.835127      -267.6274    6-B2
  15   1.0000      -9.834264      -267.6039    9-A1
  16   1.0000      -9.833933      -267.5949    7-B2
  17   1.0000      -9.807502      -266.8757    8-B2
  18   1.0000      -9.807497      -266.8756   10-A1
  19   1.0000      -9.798247      -266.6238    9-B2
  20   1.0000      -9.798244      -266.6238   11-A1
  21   1.0000      -7.585154      -206.4025   10-B2
  22   1.0000      -7.585144      -206.4023   12-A1
  23   1.0000      -7.584934      -206.3965   11-B2
  24   1.0000      -7.584924      -206.3963   13-A1
  25   1.0000      -5.508328      -149.8892   12-B2
  26   1.0000      -5.508327      -149.8892   14-A1
  27   1.0000      -5.508110      -149.8833   13-B2
  28   1.0000      -5.508109      -149.8833   15-A1
  29   1.0000      -5.503036      -149.7452   14-B2
  30   1.0000      -5.503036      -149.7452   16-A1
  31   1.0000      -5.502853      -149.7403   15-B2
  32   1.0000      -5.502853      -149.7402   17-A1
  33   1.0000      -5.501243      -149.6964    1-A2
  34   1.0000      -5.501243      -149.6964    2-B1
  35   1.0000      -5.501004      -149.6899    2-A2
  36   1.0000      -5.501004      -149.6899    3-B1
  37   1.0000      -4.026744      -109.5733   18-A1
  38   1.0000      -2.548229       -69.3408   16-B2
  39   1.0000      -2.546691       -69.2990   19-A1
  40   1.0000      -2.519125       -68.5489    4-B1
  41   1.0000      -0.595185       -16.1958   20-A1
  42   1.0000      -0.591879       -16.1058   21-A1
  43   1.0000      -0.509711       -13.8699   17-B2
  44   1.0000      -0.503773       -13.7084   22-A1
  45   1.0000      -0.502371       -13.6702   23-A1
  46   1.0000      -0.497746       -13.5444   18-B2
  47   1.0000      -0.412136       -11.2148   19-B2
  48   1.0000      -0.408912       -11.1271   20-B2
  49   1.0000      -0.395173       -10.7532   24-A1
  50   1.0000      -0.385570       -10.4919   25-A1
  51   1.0000      -0.353342        -9.6149   26-A1
  52   1.0000      -0.336765        -9.1638   27-A1
  53   1.0000      -0.292032        -7.9466   21-B2
  54   1.0000      -0.285297        -7.7633   22-B2
  55   1.0000      -0.227100        -6.1797   28-A1
  56   1.0000      -0.219841        -5.9822   23-B2
  57   1.0000      -0.219141        -5.9631   29-A1
  58   1.0000      -0.194971        -5.3054   24-B2
  59   1.0000      -0.193938        -5.2773   30-A1
  60   1.0000      -0.191845        -5.2204   31-A1
  61   1.0000      -0.139904        -3.8070   25-B2
  62   1.0000      -0.128316        -3.4916   32-A1
  63   1.0000      -0.127093        -3.4584   26-B2
  64   1.0000      -0.119828        -3.2607    5-B1
  65   1.0000      -0.118743        -3.2311    6-B1
  66   1.0000      -0.118651        -3.2287   33-A1
  67   1.0000      -0.100483        -2.7343   34-A1
  68   1.0000      -0.069464        -1.8902   35-A1
  69   1.0000      -0.067129        -1.8267   27-B2
  70   1.0000      -0.063571        -1.7299   28-B2
  71   1.0000      -0.042138        -1.1466    7-B1
  72   1.0000      -0.040114        -1.0916    8-B1
  73   1.0000      -0.032972        -0.8972   29-B2
  74   1.0000      -0.031124        -0.8469   36-A1
  75   1.0000      -0.028593        -0.7780    3-A2
  76   1.0000      -0.021621        -0.5883    4-A2
  77   1.0000      -0.005295        -0.1441    5-A2
  78   1.0000      -0.002977        -0.0810   37-A1
  79   1.0000      -0.001032        -0.0281    9-B1
  80   1.0000       0.016301         0.4436   38-A1
  81   1.0000       0.017507         0.4764   39-A1
  82   1.0000       0.031963         0.8698   30-B2
  83   1.0000       0.047859         1.3023    6-A2
  84   1.0000       0.050045         1.3618    7-A2
  85   1.0000       0.060973         1.6592   10-B1
  86   1.0000       0.085904         2.3376   11-B1
  87   1.0000       0.102137         2.7793   31-B2
  88   0.0000       0.170618         4.6428   40-A1
  89   0.0000       0.177269         4.8237   41-A1
  90   0.0000       0.192413         5.2358   32-B2
  91   0.0000       0.194437         5.2909   33-B2
  92   0.0000       0.195464         5.3189   12-B1

                 SPIN DOWN ORBITALS
  NO   OCC          E(Eh)            E(eV)    Irrep
   0   1.0000    -318.183791     -8658.2211    1-A1
   1   1.0000     -88.015361     -2395.0197    1-B2
   2   1.0000     -88.015354     -2395.0195    2-A1
   3   1.0000     -88.015142     -2395.0138    2-B2
   4   1.0000     -88.015129     -2395.0134    3-A1
   5   1.0000     -38.013222     -1034.3924    4-A1
   6   1.0000     -33.517104      -912.0468    3-B2
   7   1.0000     -33.516286      -912.0245    5-A1
   8   1.0000     -33.513277      -911.9426    1-B1
   9   1.0000      -9.847740      -267.9706    6-A1
  10   1.0000      -9.847221      -267.9565    4-B2
  11   1.0000      -9.835806      -267.6459    7-A1
  12   1.0000      -9.835568      -267.6394    8-A1
  13   1.0000      -9.835337      -267.6331    5-B2
  14   1.0000      -9.835237      -267.6304    6-B2
  15   1.0000      -9.834377      -267.6070    9-A1
  16   1.0000      -9.834046      -267.5980    7-B2
  17   1.0000      -9.807446      -266.8742    8-B2
  18   1.0000      -9.807442      -266.8741   10-A1
  19   1.0000      -9.798194      -266.6224    9-B2
  20   1.0000      -9.798191      -266.6223   11-A1
  21   1.0000      -7.584433      -206.3829   10-B2
  22   1.0000      -7.584424      -206.3827   12-A1
  23   1.0000      -7.584200      -206.3766   11-B2
  24   1.0000      -7.584191      -206.3763   13-A1
  25   1.0000      -5.507404      -149.8641   12-B2
  26   1.0000      -5.507403      -149.8641   14-A1
  27   1.0000      -5.507174      -149.8578   13-B2
  28   1.0000      -5.507174      -149.8578   15-A1
  29   1.0000      -5.500840      -149.6855   14-B2
  30   1.0000      -5.500839      -149.6854   16-A1
  31   1.0000      -5.500612      -149.6793   15-B2
  32   1.0000      -5.500612      -149.6793   17-A1
  33   1.0000      -5.500440      -149.6746    1-A2
  34   1.0000      -5.500440      -149.6746    2-B1
  35   1.0000      -5.500190      -149.6678    2-A2
  36   1.0000      -5.500189      -149.6678    3-B1
  37   1.0000      -3.992844      -108.6508   18-A1
  38   1.0000      -2.507386       -68.2294    4-B1
  39   1.0000      -2.505968       -68.1909   16-B2
  40   1.0000      -2.504402       -68.1483   19-A1
  41   1.0000      -0.594822       -16.1859   20-A1
  42   1.0000      -0.591508       -16.0958   21-A1
  43   1.0000      -0.508945       -13.8491   17-B2
  44   1.0000      -0.502359       -13.6699   22-A1
  45   1.0000      -0.501001       -13.6329   23-A1
  46   1.0000      -0.496801       -13.5186   18-B2
  47   1.0000      -0.407779       -11.0962   19-B2
  48   1.0000      -0.404536       -11.0080   20-B2
  49   1.0000      -0.393581       -10.7099   24-A1
  50   1.0000      -0.382979       -10.4214   25-A1
  51   1.0000      -0.350667        -9.5421   26-A1
  52   1.0000      -0.334976        -9.1152   27-A1
  53   1.0000      -0.290249        -7.8981   21-B2
  54   1.0000      -0.283489        -7.7141   22-B2
  55   1.0000      -0.226450        -6.1620   28-A1
  56   1.0000      -0.219216        -5.9652   23-B2
  57   1.0000      -0.218335        -5.9412   29-A1
  58   1.0000      -0.194435        -5.2909   24-B2
  59   1.0000      -0.192950        -5.2504   30-A1
  60   1.0000      -0.190900        -5.1947   31-A1
  61   1.0000      -0.138753        -3.7757   25-B2
  62   1.0000      -0.127282        -3.4635   32-A1
  63   1.0000      -0.125040        -3.4025   26-B2
  64   1.0000      -0.119658        -3.2561    5-B1
  65   1.0000      -0.118560        -3.2262    6-B1
  66   1.0000      -0.118032        -3.2118   33-A1
  67   1.0000      -0.098862        -2.6902   34-A1
  68   1.0000      -0.067503        -1.8368   35-A1
  69   1.0000      -0.065115        -1.7719   27-B2
  70   1.0000      -0.049415        -1.3447   28-B2
  71   1.0000      -0.040399        -1.0993    7-B1
  72   1.0000      -0.038939        -1.0596    8-B1
  73   1.0000      -0.025500        -0.6939    3-A2
  74   1.0000      -0.024205        -0.6587   36-A1
  75   1.0000      -0.020821        -0.5666    4-A2
  76   1.0000      -0.005047        -0.1373   29-B2
  77   1.0000       0.004403         0.1198    5-A2
  78   1.0000       0.007975         0.2170   37-A1
  79   1.0000       0.011322         0.3081    9-B1
  80   1.0000       0.024181         0.6580   38-A1
  81   1.0000       0.031971         0.8700   39-A1
  82   1.0000       0.040245         1.0951   30-B2
  83   1.0000       0.050703         1.3797    6-A2
  84   1.0000       0.055620         1.5135    7-A2
  85   1.0000       0.062794         1.7087   10-B1
  86   1.0000       0.090008         2.4492   11-B1
  87   0.0000       0.135242         3.6801   31-B2
  88   0.0000       0.171359         4.6629   40-A1
  89   0.0000       0.178234         4.8500   41-A1
  90   0.0000       0.193980         5.2785   32-B2
  91   0.0000       0.195410         5.3174   12-B1

MULLIKEN ATOMIC CHARGES AND SPIN POPULATIONS
--------------------------------------------
   0 Cu:    0.143506    0.377447
   1 S :   -0.431449    0.163502
   2 C :    0.004905   -0.007397
   3 S :   -0.438059    0.160684
   4 C :   -0.017841   -0.007060
   5 S :   -0.431449    0.163502
   6 C :    0.004905   -0.007397
   7 S :   -0.438059    0.160684
   8 C :   -0.017841   -0.007060
   9 C :   -0.394655   -0.002368
  10 C :   -0.394655   -0.002368
  11 C :   -0.101123   -0.001102
  12 H :    0.528002    0.002537
  13 C :   -0.101123   -0.001102
  14 H :    0.528002    0.002537
  15 H :   -0.114330    0.001791
  16 H :   -0.114330    0.001791
  17 C :   -0.184835   -0.002228
  18 C :   -0.184835   -0.002228
  19 C :   -0.100041   -0.000981
  20 H :    0.237495    0.002517
  21 C :   -0.100041   -0.000981
  22 H :    0.237495    0.002517
  23 H :   -0.059822    0.001380
  24 H :   -0.059822    0.001380
Sum of atomic charges         :   -2.0000000

LOEWDIN ATOMIC CHARGES AND SPIN POPULATIONS
-------------------------------------------
   0 Cu:   -0.890765    0.443586
   1 S :    0.017446    0.124410
   2 C :   -0.015665    0.005392
   3 S :    0.024855    0.122453
   4 C :    0.016484    0.005606
   5 S :    0.017446    0.124410
   6 C :   -0.015665    0.005392
   7 S :    0.024855    0.122453
   8 C :    0.016484    0.005606
   9 C :    0.472659    0.003955
  10 C :    0.472659    0.003955
  11 C :    0.242316   -0.000258
  12 H :   -0.793564    0.005515
  13 C :    0.242316   -0.000258
  14 H :   -0.793564    0.005515
  15 H :   -0.242284    0.000902
  16 H :   -0.242284    0.000902
  17 C :    0.367613    0.003940
  18 C :    0.367613    0.003940
  19 C :    0.266839   -0.000186
  20 H :   -0.587982    0.006015
  21 C :    0.266839   -0.000186
  22 H :   -0.587982    0.006015
  23 H :   -0.323337    0.000462
  24 H :   -0.323337    0.000462

  Mayer bond orders larger than 0.100000
B(  0-Cu,  1-S ) :   0.7025 B(  0-Cu,  3-S ) :   0.6996 B(  0-Cu,  5-S ) :   0.7025
B(  0-Cu,  7-S ) :   0.6996 B(  1-S ,  2-C ) :   1.1889 B(  2-C ,  6-C ) :   1.2459
B(  2-C , 17-C ) :   1.3371 B(  3-S ,  4-C ) :   1.1942 B(  4-C ,  8-C ) :   1.2463
B(  4-C , 10-C ) :   1.3809 B(  5-S ,  6-C ) :   1.1889 B(  6-C , 18-C ) :   1.3371
B(  7-S ,  8-C ) :   1.1942 B(  8-C ,  9-C ) :   1.3809 B(  9-C , 13-C ) :   1.4267
B(  9-C , 14-H ) :   0.5375 B( 10-C , 11-C ) :   1.4267 B( 10-C , 12-H ) :   0.5375
B( 11-C , 13-C ) :   1.3547 B( 11-C , 15-H ) :   0.9994 B( 13-C , 16-H ) :   0.9994
B( 17-C , 19-C ) :   1.3774 B( 17-C , 20-H ) :   0.8509 B( 18-C , 21-C ) :   1.3774
B( 18-C , 22-H ) :   0.8509 B( 19-C , 21-C ) :   1.3376 B( 19-C , 23-H ) :   1.0129
B( 21-C , 24-H ) :   1.0129

FINAL SINGLE POINT ENERGY     -3686.693661743351

DIPOLE MOMENT
-------------
                                X             Y             Z
Electronic contribution:      0.00000       0.00000      -0.41799
Nuclear contribution   :      0.00000       0.00000       0.19255
                        -----------------------------------------
Total Dipole Moment    :      0.00000       0.00000      -0.22545
                        -----------------------------------------
Magnitude (a.u.)       :      0.22545
Magnitude (Debye)      :      0.57305

Rotational constants in cm-1:     0.033492     0.004802     0.004200
Rotational constants in MHz :  1004.053827   143.970070   125.915236

                             ****ORCA TERMINATED NORMALLY****
TOTAL RUN TIME: 0 days 6 hours 42 minutes 32 seconds 732 msec
