                         Program Version 5.0.4 -  RELEASE  -
|  1> ! RIJCOSX nofrozencore ReducedPop printbasis
|  2> ! M06L ano-rcc-dzp autoaux
|  3>
|  4> %maxcore 5000
|  5> %basis
|  6> PCDTrimBas overlap
|  7> PCDTrimAuxJ Coulomb
|  8> PCDTrimAuxJK Coulomb
|  9> PCDTrimAuxC Coulomb
| 10> PCDThresh -1
| 11> end
| 12>
| 13> %basis
| 14> newgto Cu "ano-rcc-tzp" end
| 15> newgto S "ano-rcc-tzp" end
| 16> end
| 17>
| 18> %pal
| 19> nprocs 12
| 20> end
| 21>
| 22> % sym SymThresh 1e-2 end
| 23> * xyz -2 2
| 24> Cu 0.0001616601723387447 -4.323811182610324e-05 5.478553061822761e-05
| 25> S 2.155410031967399 0.7847970677631813 0.34697198208588537
| 26> C 3.005417190825438 -0.5781261173795121 0.9549313236199887
| 27> S -0.700953974504516 2.069348172531729 -0.7676800519115466
| 28> C -2.407726352507186 1.8574203114546706 -1.1577946778760375
| 29> S 0.7089375857921443 -2.0703442429139955 0.7700647111328246
| 30> C 2.3708792320590684 -1.8330150116472599 1.1412086182779198
| 31> S -2.149125275304038 -0.7909234895477808 -0.3435898072235344
| 32> C -3.0507852935931603 0.5959395498999089 -0.9719061067437491
| 33> C -4.39035823325302 0.5186881929500269 -1.3031852295336424
| 34> C -3.194716033617471 2.8796732085054257 -1.6531774575881204
| 35> C -4.476776078779388 2.709282899297668 -1.943061505709962
| 36> H -2.8503407394514966 3.8998110603320937 -1.8497959217555788
| 37> C -5.051498388199344 1.5691983431750536 -1.7733608757444415
| 38> H -5.013242125603837 -0.37631826462476364 -1.2152171468597448
| 39> H -5.0854504967967555 3.5154166926549326 -2.330567939280615
| 40> H -6.100584959938282 1.5110148087819748 -2.033454517626692
| 41> C 4.383926546496013 -0.4242344335001074 1.2748820958513718
| 42> C 3.1095657436734006 -2.9402718546325985 1.6478072350606632
| 43> C 5.193940854057853 -1.5157292028907396 1.7958387284533588
| 44> H 4.70975905642035 0.6108030916152813 1.0691794162275605
| 45> C 4.520750891095355 -2.8428794198337233 1.9922857431589547
| 46> H 2.4601036538932006 -3.830039781749977 1.7272949790000887
| 47> H 6.247382634060163 -1.313074644408803 2.016381992730595
| 48> H 5.017946867388947 -3.7400555889690197 2.3760593786463033
| 49> *
| 50>
| 51> % eprnmr
| 52> gtensor true
| 53> Nuclei = all H {aiso,adip,aorb,fgrad,rho}
| 54> Nuclei = all Cu {aiso,adip,aorb,fgrad,rho}
| 55> end
| 56>
| 57>                          ****END OF INPUT****

CARTESIAN COORDINATES (ANGSTROEM)
---------------------------------
  Cu    -0.000000    0.000000    0.000174
  S      1.614243    0.000000    1.666200
  C      0.709239    0.000000    3.126978
  S      1.616957    0.000000   -1.657727
  C      0.714038    0.000000   -3.176080
  S     -1.614243    0.000000    1.666200
  C     -0.709239    0.000000    3.126978
  S     -1.616957    0.000000   -1.657727
  C     -0.714038    0.000000   -3.176080
  C     -1.334757    0.000000   -4.410846
  C      1.334757    0.000000   -4.410846
  C      0.643989    0.000000   -5.543131
  H      2.416925    0.000000   -4.572888
  C     -0.643989    0.000000   -5.543131
  H     -2.416925    0.000000   -4.572888
  H      1.133181    0.000000   -6.508399
  H     -1.133181    0.000000   -6.508399
  C      1.422455    0.000000    4.359313
  C     -1.422455    0.000000    4.359313
  C      0.750517    0.000000    5.650721
  H      2.510735    0.000000    4.171052
  C     -0.750517    0.000000    5.650721
  H     -2.510735    0.000000    4.171052
  H      1.372144    0.000000    6.552391
  H     -1.372144    0.000000    6.552391

 Total Charge           Charge          ....   -2
 Multiplicity           Mult            ....    2
 Number of Electrons    NEL             ....  175
 Basis Dimension        Dim             ....  475

ORBITAL ENERGIES
----------------
                 SPIN UP ORBITALS
  NO   OCC          E(Eh)            E(eV)    Irrep
   0   1.0000    -318.181956     -8658.1712    1-A1
   1   1.0000     -88.015189     -2395.0150    1-B1
   2   1.0000     -88.015180     -2395.0148    2-A1
   3   1.0000     -88.014482     -2394.9958    2-B1
   4   1.0000     -88.014469     -2394.9955    3-A1
   5   1.0000     -38.027143     -1034.7712    4-A1
   6   1.0000     -33.530285      -912.4054    3-B1
   7   1.0000     -33.529440      -912.3825    5-A1
   8   1.0000     -33.515648      -912.0072    1-B2
   9   1.0000      -9.844595      -267.8850    6-A1
  10   1.0000      -9.844436      -267.8807    4-B1
  11   1.0000      -9.834355      -267.6064    7-A1
  12   1.0000      -9.834040      -267.5978    5-B1
  13   1.0000      -9.831693      -267.5340    8-A1
  14   1.0000      -9.831347      -267.5246    6-B1
  15   1.0000      -9.826465      -267.3917    7-B1
  16   1.0000      -9.826461      -267.3916    9-A1
  17   1.0000      -9.809379      -266.9268    8-B1
  18   1.0000      -9.809375      -266.9267   10-A1
  19   1.0000      -9.802782      -266.7473   11-A1
  20   1.0000      -9.801682      -266.7173    9-B1
  21   1.0000      -7.583820      -206.3662   10-B1
  22   1.0000      -7.583808      -206.3659   12-A1
  23   1.0000      -7.583305      -206.3522   11-B1
  24   1.0000      -7.583297      -206.3520   13-A1
  25   1.0000      -5.506802      -149.8477   12-B1
  26   1.0000      -5.506801      -149.8477   14-A1
  27   1.0000      -5.506726      -149.8456   13-B1
  28   1.0000      -5.506726      -149.8456   15-A1
  29   1.0000      -5.501674      -149.7082   14-B1
  30   1.0000      -5.501674      -149.7082   16-A1
  31   1.0000      -5.501254      -149.6967   15-B1
  32   1.0000      -5.501254      -149.6967   17-A1
  33   1.0000      -5.499994      -149.6625    1-A2
  34   1.0000      -5.499994      -149.6624    2-B2
  35   1.0000      -5.499260      -149.6425    2-A2
  36   1.0000      -5.499260      -149.6425    3-B2
  37   1.0000      -4.024740      -109.5187   18-A1
  38   1.0000      -2.546181       -69.2851   16-B1
  39   1.0000      -2.544650       -69.2434   19-A1
  40   1.0000      -2.517202       -68.4965    4-B2
  41   1.0000      -0.613570       -16.6961   20-A1
  42   1.0000      -0.573123       -15.5955   21-A1
  43   1.0000      -0.513037       -13.9605   22-A1
  44   1.0000      -0.497278       -13.5316   17-B1
  45   1.0000      -0.492110       -13.3910   23-A1
  46   1.0000      -0.485446       -13.2097   18-B1
  47   1.0000      -0.410111       -11.1597   19-B1
  48   1.0000      -0.405490       -11.0339   20-B1
  49   1.0000      -0.393323       -10.7029   24-A1
  50   1.0000      -0.377220       -10.2647   25-A1
  51   1.0000      -0.327537        -8.9127   26-A1
  52   1.0000      -0.316215        -8.6046   27-A1
  53   1.0000      -0.301903        -8.2152   21-B1
  54   1.0000      -0.296398        -8.0654   22-B1
  55   1.0000      -0.246227        -6.7002   28-A1
  56   1.0000      -0.215603        -5.8669   29-A1
  57   1.0000      -0.199860        -5.4385   30-A1
  58   1.0000      -0.177068        -4.8183   31-A1
  59   1.0000      -0.173696        -4.7265   23-B1
  60   1.0000      -0.170794        -4.6475   24-B1
  61   1.0000      -0.145444        -3.9577   25-B1
  62   1.0000      -0.141828        -3.8593   26-B1
  63   1.0000      -0.132762        -3.6126    5-B2
  64   1.0000      -0.130786        -3.5589   32-A1
  65   1.0000      -0.112366        -3.0576   33-A1
  66   1.0000      -0.106678        -2.9028    6-B2
  67   1.0000      -0.084710        -2.3051   34-A1
  68   1.0000      -0.069282        -1.8853   27-B1
  69   1.0000      -0.065099        -1.7714   28-B1
  70   1.0000      -0.061223        -1.6660   35-A1
  71   1.0000      -0.044263        -1.2045    7-B2
  72   1.0000      -0.031641        -0.8610   29-B1
  73   1.0000      -0.031185        -0.8486    8-B2
  74   1.0000      -0.029617        -0.8059   36-A1
  75   1.0000      -0.027428        -0.7464    3-A2
  76   1.0000      -0.020084        -0.5465    4-A2
  77   1.0000      -0.002942        -0.0800    5-A2
  78   1.0000      -0.001176        -0.0320   37-A1
  79   1.0000       0.000986         0.0268    9-B2
  80   1.0000       0.017725         0.4823   38-A1
  81   1.0000       0.018630         0.5069   39-A1
  82   1.0000       0.034299         0.9333   30-B1
  83   1.0000       0.050052         1.3620    6-A2
  84   1.0000       0.052115         1.4181    7-A2
  85   1.0000       0.062048         1.6884   10-B2
  86   1.0000       0.087403         2.3784   11-B2
  87   1.0000       0.104564         2.8453   31-B1
  88   0.0000       0.177065         4.8182   40-A1
  89   0.0000       0.185108         5.0370   41-A1
  90   0.0000       0.194882         5.3030   32-B1
  91   0.0000       0.195763         5.3270   12-B2
  92   0.0000       0.197792         5.3822    8-A2

                 SPIN DOWN ORBITALS
  NO   OCC          E(Eh)            E(eV)    Irrep
   0   1.0000    -318.181782     -8658.1665    1-A1
   1   1.0000     -88.014097     -2394.9853    1-B1
   2   1.0000     -88.014088     -2394.9851    2-A1
   3   1.0000     -88.013437     -2394.9674    2-B1
   4   1.0000     -88.013424     -2394.9670    3-A1
   5   1.0000     -38.011262     -1034.3390    4-A1
   6   1.0000     -33.515114      -911.9926    3-B1
   7   1.0000     -33.514302      -911.9705    5-A1
   8   1.0000     -33.511320      -911.8894    1-B2
   9   1.0000      -9.844563      -267.8842    6-A1
  10   1.0000      -9.844405      -267.8799    4-B1
  11   1.0000      -9.834472      -267.6096    7-A1
  12   1.0000      -9.834157      -267.6010    5-B1
  13   1.0000      -9.831807      -267.5371    8-A1
  14   1.0000      -9.831460      -267.5276    6-B1
  15   1.0000      -9.826387      -267.3896    7-B1
  16   1.0000      -9.826383      -267.3895    9-A1
  17   1.0000      -9.809330      -266.9254    8-B1
  18   1.0000      -9.809326      -266.9253   10-A1
  19   1.0000      -9.802763      -266.7467   11-A1
  20   1.0000      -9.801664      -266.7168    9-B1
  21   1.0000      -7.583102      -206.3467   10-B1
  22   1.0000      -7.583091      -206.3464   12-A1
  23   1.0000      -7.582557      -206.3319   11-B1
  24   1.0000      -7.582548      -206.3316   13-A1
  25   1.0000      -5.505886      -149.8228   12-B1
  26   1.0000      -5.505885      -149.8228   14-A1
  27   1.0000      -5.505785      -149.8200   13-B1
  28   1.0000      -5.505785      -149.8200   15-A1
  29   1.0000      -5.499486      -149.6486   14-B1
  30   1.0000      -5.499485      -149.6486   16-A1
  31   1.0000      -5.499194      -149.6407    1-A2
  32   1.0000      -5.499194      -149.6407    2-B2
  33   1.0000      -5.498951      -149.6341   15-B1
  34   1.0000      -5.498951      -149.6341   17-A1
  35   1.0000      -5.498431      -149.6199    2-A2
  36   1.0000      -5.498431      -149.6199    3-B2
  37   1.0000      -3.990979      -108.6001   18-A1
  38   1.0000      -2.505488       -68.1778    4-B2
  39   1.0000      -2.504086       -68.1396   16-B1
  40   1.0000      -2.502533       -68.0974   19-A1
  41   1.0000      -0.613380       -16.6909   20-A1
  42   1.0000      -0.572468       -15.5776   21-A1
  43   1.0000      -0.511814       -13.9272   22-A1
  44   1.0000      -0.496589       -13.5129   17-B1
  45   1.0000      -0.490903       -13.3582   23-A1
  46   1.0000      -0.483940       -13.1687   18-B1
  47   1.0000      -0.405838       -11.0434   19-B1
  48   1.0000      -0.401903       -10.9363   20-B1
  49   1.0000      -0.390062       -10.6141   24-A1
  50   1.0000      -0.374211       -10.1828   25-A1
  51   1.0000      -0.326119        -8.8741   26-A1
  52   1.0000      -0.314830        -8.5670   27-A1
  53   1.0000      -0.300161        -8.1678   21-B1
  54   1.0000      -0.294045        -8.0014   22-B1
  55   1.0000      -0.245530        -6.6812   28-A1
  56   1.0000      -0.214958        -5.8493   29-A1
  57   1.0000      -0.198874        -5.4116   30-A1
  58   1.0000      -0.176176        -4.7940   31-A1
  59   1.0000      -0.173236        -4.7140   23-B1
  60   1.0000      -0.169787        -4.6201   24-B1
  61   1.0000      -0.144765        -3.9393   25-B1
  62   1.0000      -0.140263        -3.8168   26-B1
  63   1.0000      -0.132723        -3.6116    5-B2
  64   1.0000      -0.129493        -3.5237   32-A1
  65   1.0000      -0.111413        -3.0317   33-A1
  66   1.0000      -0.106291        -2.8923    6-B2
  67   1.0000      -0.083325        -2.2674   34-A1
  68   1.0000      -0.067668        -1.8413   27-B1
  69   1.0000      -0.059559        -1.6207   35-A1
  70   1.0000      -0.050590        -1.3766   28-B1
  71   1.0000      -0.042839        -1.1657    7-B2
  72   1.0000      -0.029693        -0.8080    8-B2
  73   1.0000      -0.024898        -0.6775    3-A2
  74   1.0000      -0.022778        -0.6198   36-A1
  75   1.0000      -0.018524        -0.5041    4-A2
  76   1.0000      -0.003044        -0.0828   29-B1
  77   1.0000       0.006655         0.1811    5-A2
  78   1.0000       0.009649         0.2626   37-A1
  79   1.0000       0.013162         0.3582    9-B2
  80   1.0000       0.025263         0.6875   38-A1
  81   1.0000       0.033689         0.9167   39-A1
  82   1.0000       0.042604         1.1593   30-B1
  83   1.0000       0.052864         1.4385    6-A2
  84   1.0000       0.057669         1.5692    7-A2
  85   1.0000       0.063942         1.7399   10-B2
  86   1.0000       0.091524         2.4905   11-B2
  87   0.0000       0.137593         3.7441   31-B1
  88   0.0000       0.178279         4.8512   40-A1
  89   0.0000       0.186316         5.0699   41-A1
  90   0.0000       0.195908         5.3309   12-B2
  91   0.0000       0.197004         5.3608   32-B1

MULLIKEN ATOMIC CHARGES AND SPIN POPULATIONS
--------------------------------------------
   0 Cu:    0.139022    0.375555
   1 S :   -0.402339    0.158462
   2 C :    0.058015   -0.007624
   3 S :   -0.441044    0.167098
   4 C :   -0.011656   -0.008056
   5 S :   -0.402339    0.158462
   6 C :    0.058015   -0.007624
   7 S :   -0.441044    0.167098
   8 C :   -0.011656   -0.008056
   9 C :   -0.095898   -0.000765
  10 C :   -0.095898   -0.000765
  11 C :   -0.038347   -0.000764
  12 H :    0.034778    0.000860
  13 C :   -0.038347   -0.000764
  14 H :    0.034778    0.000860
  15 H :    0.017382    0.001079
  16 H :    0.017382    0.001079
  17 C :   -0.105522   -0.000638
  18 C :   -0.105522   -0.000638
  19 C :   -0.201551   -0.000804
  20 H :    0.076213    0.002154
  21 C :   -0.201551   -0.000804
  22 H :    0.076213    0.002154
  23 H :    0.040460    0.001221
  24 H :    0.040460    0.001221
Sum of atomic charges         :   -2.0000000

LOEWDIN ATOMIC CHARGES AND SPIN POPULATIONS
-------------------------------------------
   0 Cu:   -0.892316    0.442413
   1 S :    0.025250    0.118287
   2 C :   -0.050302    0.004761
   3 S :   -0.001985    0.129169
   4 C :   -0.026203    0.005247
   5 S :    0.025250    0.118287
   6 C :   -0.050302    0.004761
   7 S :   -0.001985    0.129169
   8 C :   -0.026203    0.005247
   9 C :    0.294484    0.003595
  10 C :    0.294484    0.003595
  11 C :    0.273430   -0.000121
  12 H :   -0.412686    0.004648
  13 C :    0.273430   -0.000121
  14 H :   -0.412686    0.004648
  15 H :   -0.391251    0.000207
  16 H :   -0.391251    0.000207
  17 C :    0.313587    0.004412
  18 C :    0.313587    0.004412
  19 C :    0.333272    0.000001
  20 H :   -0.467817    0.008350
  21 C :    0.333272    0.000001
  22 H :   -0.467817    0.008350
  23 H :   -0.443623    0.000237
  24 H :   -0.443623    0.000237

  Mayer bond orders larger than 0.100000
B(  0-Cu,  1-S ) :   0.6981 B(  0-Cu,  3-S ) :   0.7047 B(  0-Cu,  5-S ) :   0.6981
B(  0-Cu,  7-S ) :   0.7047 B(  1-S ,  2-C ) :   1.1977 B(  2-C ,  6-C ) :   1.2343
B(  2-C , 17-C ) :   1.3073 B(  3-S ,  4-C ) :   1.1727 B(  4-C ,  8-C ) :   1.2561
B(  4-C , 10-C ) :   1.3333 B(  5-S ,  6-C ) :   1.1977 B(  6-C , 18-C ) :   1.3073
B(  7-S ,  8-C ) :   1.1727 B(  8-C ,  9-C ) :   1.3333 B(  9-C , 13-C ) :   1.3394
B(  9-C , 14-H ) :   0.9873 B( 10-C , 11-C ) :   1.3394 B( 10-C , 12-H ) :   0.9873
B( 11-C , 13-C ) :   1.3266 B( 11-C , 15-H ) :   0.9847 B( 13-C , 16-H ) :   0.9847
B( 17-C , 19-C ) :   1.3735 B( 17-C , 20-H ) :   0.9576 B( 18-C , 21-C ) :   1.3735
B( 18-C , 22-H ) :   0.9576 B( 19-C , 21-C ) :   1.3256 B( 19-C , 23-H ) :   0.9882
B( 21-C , 24-H ) :   0.9882

FINAL SINGLE POINT ENERGY     -3686.878769386058

DIPOLE MOMENT
-------------
                                X             Y             Z
Electronic contribution:     -0.00000      -0.00000       0.14890
Nuclear contribution   :     -0.00000       0.00000      -0.67284
                        -----------------------------------------
Total Dipole Moment    :     -0.00000      -0.00000      -0.52393
                        -----------------------------------------
Magnitude (a.u.)       :      0.52393
Magnitude (Debye)      :      1.33173

Rotational constants in cm-1:     0.033393     0.004803     0.004199
Rotational constants in MHz :  1001.099690   143.998396   125.890307

                             ****ORCA TERMINATED NORMALLY****
TOTAL RUN TIME: 0 days 6 hours 29 minutes 50 seconds 512 msec
