                         Program Version 5.0.4 -  RELEASE  -
|  1> ! RIJCOSX nofrozencore ReducedPop printbasis
|  2> ! M06L ano-rcc-dzp autoaux
|  3>
|  4> %maxcore 5000
|  5> %basis
|  6> PCDTrimBas overlap
|  7> PCDTrimAuxJ Coulomb
|  8> PCDTrimAuxJK Coulomb
|  9> PCDTrimAuxC Coulomb
| 10> PCDThresh -1
| 11> end
| 12>
| 13> %basis
| 14> newgto Cu "ano-rcc-tzp" end
| 15> newgto S "ano-rcc-tzp" end
| 16> end
| 17>
| 18> %pal
| 19> nprocs 12
| 20> end
| 21>
| 22> % sym SymThresh 1e-2 end
| 23> * xyz -2 2
| 24> Cu -0.006420463811529365 0.0007494728982079808 -0.0036700825358149036
| 25> S -1.709976469093639 1.3212184356137013 0.5550547857189728
| 26> C -1.285209167117248 2.165002854481647 2.0190323387519356
| 27> S -1.130430680682361 -0.8556761130932752 -1.996396155438744
| 28> C 0.03802998712532196 -1.969164910049357 -2.66362201963521
| 29> S 1.1302453354729913 0.8520569029077971 1.991310185149144
| 30> C -0.03200425034860003 1.9672839437468432 2.665458704166225
| 31> S 1.7072736029062388 -1.3171322745285896 -0.5514468860585708
| 32> C 1.290610255994344 -2.1651433469914445 -2.015273691948044
| 33> C 2.2130884114990446 -3.0660250728282086 -2.57183947716307
| 34> C -0.21118912499701242 -2.6970308635938656 -3.8407569437215265
| 35> C 0.7192724638948802 -3.586914078362767 -4.376446811552103
| 36> H -1.165480092305263 -2.5523269539804603 -4.341000735868394
| 37> C 1.9437954050742732 -3.773878848465337 -3.7363032816091204
| 38> H 3.1615618121821845 -3.1976519649009933 -2.057977425553088
| 39> H 0.48429982407846645 -4.1291396379896135 -5.289429181925737
| 40> H 2.68226179275027 -4.4631814689992435 -4.138279458564738
| 41> C -2.2053978961527037 3.064976847271737 2.576028371753586
| 42> C 0.21694076104857196 2.6962735892814162 3.843928988542475
| 43> C -1.9367197387646153 3.773702955125988 3.7412384262683522
| 44> H -3.154217261753653 3.1974128479284167 2.0630191446127135
| 45> C -0.711975668873805 3.586004109535771 4.380544063454819
| 46> H 1.1715828352763553 2.550882511583944 4.343492229475034
| 47> H -2.6753373792030346 4.462916486145057 4.14298220128722
| 48> H -0.47564054970566455 4.127508420676445 5.293537233704106
| 49> *
| 50>
| 51> % eprnmr
| 52> gtensor true
| 53> Nuclei = all H {aiso,adip,aorb,fgrad,rho}
| 54> Nuclei = all Cu {aiso,adip,aorb,fgrad,rho}
| 55> end
| 56>
| 57>                          ****END OF INPUT****

CARTESIAN COORDINATES (ANGSTROEM)
---------------------------------
  Cu    -0.003478   -0.006569    0.000000
  S      0.953835   -2.016909    0.000000
  C      2.681970   -1.795141    0.000000
  S     -2.268648   -0.921351    0.000000
  C     -3.273660    0.507039    0.000000
  S      2.262440    0.922029    0.000000
  C      3.274952   -0.500593    0.000000
  S     -0.948978    2.013245    0.000000
  C     -2.678221    1.800550    0.000000
  C     -3.508219    2.933433    0.000000
  C     -4.677930    0.432392    0.000000
  C     -5.483594    1.570600    0.000000
  H     -5.139291   -0.551986    0.000000
  C     -4.893741    2.834036    0.000000
  H     -3.029223    3.908904    0.000000
  H     -6.566089    1.465903    0.000000
  H     -5.504728    3.733342    0.000000
  C      3.512132   -2.925528    0.000000
  C      4.680903   -0.426486    0.000000
  C      4.898666   -2.826951    0.000000
  H      3.034237   -3.901537    0.000000
  C      5.487455   -1.563120    0.000000
  H      5.141373    0.558405    0.000000
  H      5.509393   -3.726386    0.000000
  H      6.569746   -1.456894    0.000000

 Total Charge           Charge          ....   -2
 Multiplicity           Mult            ....    2
 Number of Electrons    NEL             ....  175
 Basis Dimension        Dim             ....  475

ORBITAL ENERGIES
----------------
                 SPIN UP ORBITALS
  NO   OCC          E(Eh)            E(eV)    Irrep
   0   1.0000    -318.182558     -8658.1876    1-A'
   1   1.0000     -88.016494     -2395.0506    2-A'
   2   1.0000     -88.016466     -2395.0498    3-A'
   3   1.0000     -88.014971     -2395.0091    4-A'
   4   1.0000     -88.014896     -2395.0071    5-A'
   5   1.0000     -38.027763     -1034.7880    6-A'
   6   1.0000     -33.531345      -912.4343    7-A'
   7   1.0000     -33.529692      -912.3893    8-A'
   8   1.0000     -33.516460      -912.0292    1-A"
   9   1.0000      -9.834907      -267.6214    9-A'
  10   1.0000      -9.834768      -267.6176   10-A'
  11   1.0000      -9.833477      -267.5825   11-A'
  12   1.0000      -9.833201      -267.5750   12-A'
  13   1.0000      -9.825556      -267.3670   13-A'
  14   1.0000      -9.825555      -267.3669   14-A'
  15   1.0000      -9.824798      -267.3463   15-A'
  16   1.0000      -9.824727      -267.3444   16-A'
  17   1.0000      -9.819068      -267.1904   17-A'
  18   1.0000      -9.819018      -267.1891   18-A'
  19   1.0000      -9.817684      -267.1528   19-A'
  20   1.0000      -9.817430      -267.1458   20-A'
  21   1.0000      -7.585463      -206.4109   21-A'
  22   1.0000      -7.585445      -206.4105   22-A'
  23   1.0000      -7.583306      -206.3522   23-A'
  24   1.0000      -7.583223      -206.3500   24-A'
  25   1.0000      -5.508626      -149.8973   25-A'
  26   1.0000      -5.508613      -149.8970   26-A'
  27   1.0000      -5.506531      -149.8403   27-A'
  28   1.0000      -5.506450      -149.8381   28-A'
  29   1.0000      -5.503167      -149.7488   29-A'
  30   1.0000      -5.503152      -149.7484   30-A'
  31   1.0000      -5.501524      -149.7041    2-A"
  32   1.0000      -5.501514      -149.7038    3-A"
  33   1.0000      -5.501471      -149.7026   31-A'
  34   1.0000      -5.501391      -149.7005   32-A'
  35   1.0000      -5.499371      -149.6455    4-A"
  36   1.0000      -5.499294      -149.6434    5-A"
  37   1.0000      -4.025430      -109.5375   33-A'
  38   1.0000      -2.548306       -69.3429   34-A'
  39   1.0000      -2.543811       -69.2206   35-A'
  40   1.0000      -2.518103       -68.5211    6-A"
  41   1.0000      -0.589555       -16.0426   36-A'
  42   1.0000      -0.589449       -16.0397   37-A'
  43   1.0000      -0.505252       -13.7486   38-A'
  44   1.0000      -0.504260       -13.7216   39-A'
  45   1.0000      -0.490060       -13.3352   40-A'
  46   1.0000      -0.489829       -13.3289   41-A'
  47   1.0000      -0.409893       -11.1537   42-A'
  48   1.0000      -0.407995       -11.1021   43-A'
  49   1.0000      -0.388338       -10.5672   44-A'
  50   1.0000      -0.382482       -10.4079   45-A'
  51   1.0000      -0.322459        -8.7746   46-A'
  52   1.0000      -0.320005        -8.7078   47-A'
  53   1.0000      -0.300396        -8.1742   48-A'
  54   1.0000      -0.297720        -8.1014   49-A'
  55   1.0000      -0.233425        -6.3518   50-A'
  56   1.0000      -0.228630        -6.2213   51-A'
  57   1.0000      -0.190378        -5.1805   52-A'
  58   1.0000      -0.189566        -5.1583   53-A'
  59   1.0000      -0.178147        -4.8476   54-A'
  60   1.0000      -0.175827        -4.7845   55-A'
  61   1.0000      -0.146960        -3.9990   56-A'
  62   1.0000      -0.145049        -3.9470   57-A'
  63   1.0000      -0.131225        -3.5708   58-A'
  64   1.0000      -0.117323        -3.1925    7-A"
  65   1.0000      -0.117245        -3.1904    8-A"
  66   1.0000      -0.115260        -3.1364   59-A'
  67   1.0000      -0.087872        -2.3911   60-A'
  68   1.0000      -0.069747        -1.8979   61-A'
  69   1.0000      -0.066783        -1.8173   62-A'
  70   1.0000      -0.064402        -1.7525   63-A'
  71   1.0000      -0.040455        -1.1008    9-A"
  72   1.0000      -0.038055        -1.0355   10-A"
  73   1.0000      -0.035462        -0.9650   64-A'
  74   1.0000      -0.026393        -0.7182   11-A"
  75   1.0000      -0.026191        -0.7127   65-A'
  76   1.0000      -0.019826        -0.5395   12-A"
  77   1.0000      -0.004694        -0.1277   13-A"
  78   1.0000      -0.001081        -0.0294   66-A'
  79   1.0000       0.000871         0.0237   14-A"
  80   1.0000       0.016905         0.4600   67-A'
  81   1.0000       0.017844         0.4856   68-A'
  82   1.0000       0.037017         1.0073   69-A'
  83   1.0000       0.048461         1.3187   15-A"
  84   1.0000       0.051451         1.4000   16-A"
  85   1.0000       0.062382         1.6975   17-A"
  86   1.0000       0.086181         2.3451   18-A"
  87   1.0000       0.100425         2.7327   70-A'
  88   0.0000       0.180964         4.9243   71-A'
  89   0.0000       0.181056         4.9268   72-A'
  90   0.0000       0.196464         5.3461   73-A'
  91   0.0000       0.196626         5.3505   74-A'
  92   0.0000       0.199338         5.4243   19-A"

                 SPIN DOWN ORBITALS
  NO   OCC          E(Eh)            E(eV)    Irrep
   0   1.0000    -318.182370     -8658.1825    1-A'
   1   1.0000     -88.015622     -2395.0268    2-A'
   2   1.0000     -88.015594     -2395.0261    3-A'
   3   1.0000     -88.013702     -2394.9746    4-A'
   4   1.0000     -88.013617     -2394.9723    5-A'
   5   1.0000     -38.012390     -1034.3697    6-A'
   6   1.0000     -33.516605      -912.0332    7-A'
   7   1.0000     -33.515074      -911.9915    8-A'
   8   1.0000     -33.512264      -911.9151    1-A"
   9   1.0000      -9.835067      -267.6258    9-A'
  10   1.0000      -9.834924      -267.6219   10-A'
  11   1.0000      -9.833554      -267.5846   11-A'
  12   1.0000      -9.833274      -267.5770   12-A'
  13   1.0000      -9.825533      -267.3663   13-A'
  14   1.0000      -9.825532      -267.3663   14-A'
  15   1.0000      -9.824781      -267.3459   15-A'
  16   1.0000      -9.824710      -267.3440   16-A'
  17   1.0000      -9.818995      -267.1884   17-A'
  18   1.0000      -9.818945      -267.1871   18-A'
  19   1.0000      -9.817646      -267.1517   19-A'
  20   1.0000      -9.817391      -267.1448   20-A'
  21   1.0000      -7.584868      -206.3948   21-A'
  22   1.0000      -7.584847      -206.3942   22-A'
  23   1.0000      -7.582439      -206.3286   23-A'
  24   1.0000      -7.582349      -206.3262   24-A'
  25   1.0000      -5.507867      -149.8767   25-A'
  26   1.0000      -5.507850      -149.8762   26-A'
  27   1.0000      -5.505451      -149.8109   27-A'
  28   1.0000      -5.505362      -149.8085   28-A'
  29   1.0000      -5.501346      -149.6992   29-A'
  30   1.0000      -5.501320      -149.6985   30-A'
  31   1.0000      -5.500863      -149.6861    2-A"
  32   1.0000      -5.500849      -149.6857    3-A"
  33   1.0000      -5.498776      -149.6293   31-A'
  34   1.0000      -5.498676      -149.6266   32-A'
  35   1.0000      -5.498409      -149.6193    4-A"
  36   1.0000      -5.498325      -149.6170    5-A"
  37   1.0000      -3.992738      -108.6479   33-A'
  38   1.0000      -2.506725       -68.2115    6-A"
  39   1.0000      -2.506236       -68.1981   34-A'
  40   1.0000      -2.504266       -68.1445   35-A'
  41   1.0000      -0.589197       -16.0329   36-A'
  42   1.0000      -0.589099       -16.0302   37-A'
  43   1.0000      -0.503950       -13.7132   38-A'
  44   1.0000      -0.503020       -13.6879   39-A'
  45   1.0000      -0.489041       -13.3075   40-A'
  46   1.0000      -0.488818       -13.3014   41-A'
  47   1.0000      -0.405970       -11.0470   42-A'
  48   1.0000      -0.404029       -10.9942   43-A'
  49   1.0000      -0.385029       -10.4772   44-A'
  50   1.0000      -0.379287       -10.3209   45-A'
  51   1.0000      -0.321221        -8.7409   46-A'
  52   1.0000      -0.318470        -8.6660   47-A'
  53   1.0000      -0.298593        -8.1251   48-A'
  54   1.0000      -0.295501        -8.0410   49-A'
  55   1.0000      -0.232847        -6.3361   50-A'
  56   1.0000      -0.227941        -6.2026   51-A'
  57   1.0000      -0.189389        -5.1535   52-A'
  58   1.0000      -0.188664        -5.1338   53-A'
  59   1.0000      -0.177649        -4.8341   54-A'
  60   1.0000      -0.174955        -4.7608   55-A'
  61   1.0000      -0.146308        -3.9812   56-A'
  62   1.0000      -0.143531        -3.9057   57-A'
  63   1.0000      -0.129998        -3.5374   58-A'
  64   1.0000      -0.117162        -3.1881    7-A"
  65   1.0000      -0.117062        -3.1854    8-A"
  66   1.0000      -0.114364        -3.1120   59-A'
  67   1.0000      -0.086146        -2.3442   60-A'
  68   1.0000      -0.068383        -1.8608   61-A'
  69   1.0000      -0.062665        -1.7052   62-A'
  70   1.0000      -0.053693        -1.4611   63-A'
  71   1.0000      -0.038259        -1.0411    9-A"
  72   1.0000      -0.037173        -1.0115   10-A"
  73   1.0000      -0.025136        -0.6840   64-A'
  74   1.0000      -0.023380        -0.6362   11-A"
  75   1.0000      -0.019019        -0.5175   12-A"
  76   1.0000      -0.000165        -0.0045   65-A'
  77   1.0000       0.004265         0.1161   13-A"
  78   1.0000       0.009876         0.2687   66-A'
  79   1.0000       0.013387         0.3643   14-A"
  80   1.0000       0.023450         0.6381   67-A'
  81   1.0000       0.032632         0.8880   68-A'
  82   1.0000       0.045693         1.2434   69-A'
  83   1.0000       0.051144         1.3917   15-A"
  84   1.0000       0.056800         1.5456   16-A"
  85   1.0000       0.064512         1.7555   17-A"
  86   1.0000       0.090332         2.4581   18-A"
  87   0.0000       0.132421         3.6034   70-A'
  88   0.0000       0.181929         4.9505   71-A'
  89   0.0000       0.182003         4.9525   72-A'
  90   0.0000       0.198077         5.3899   73-A'
  91   0.0000       0.198270         5.3952   74-A'

MULLIKEN ATOMIC CHARGES AND SPIN POPULATIONS
--------------------------------------------
   0 Cu:    0.142030    0.373555
   1 S :   -0.402077    0.139069
   2 C :    0.030886   -0.005254
   3 S :   -0.447809    0.187945
   4 C :    0.019071   -0.010271
   5 S :   -0.447647    0.189236
   6 C :    0.017393   -0.010376
   7 S :   -0.401142    0.139832
   8 C :    0.029217   -0.005372
   9 C :   -0.087969   -0.001733
  10 C :   -0.098604   -0.001404
  11 C :   -0.136415   -0.000538
  12 H :    0.062215    0.001683
  13 C :   -0.137210   -0.001280
  14 H :    0.065771    0.001983
  15 H :    0.032224    0.001064
  16 H :    0.030035    0.001036
  17 C :   -0.086070   -0.001738
  18 C :   -0.100274   -0.001385
  19 C :   -0.138601   -0.001300
  20 H :    0.066179    0.001996
  21 C :   -0.135507   -0.000527
  22 H :    0.062246    0.001675
  23 H :    0.029917    0.001026
  24 H :    0.032140    0.001079
Sum of atomic charges         :   -2.0000000

LOEWDIN ATOMIC CHARGES AND SPIN POPULATIONS
-------------------------------------------
   0 Cu:   -0.876410    0.432556
   1 S :    0.031033    0.095239
   2 C :   -0.032982    0.004394
   3 S :   -0.019383    0.157401
   4 C :   -0.047540    0.005898
   5 S :   -0.021549    0.159018
   6 C :   -0.047326    0.006005
   7 S :    0.029093    0.096128
   8 C :   -0.032437    0.004409
   9 C :    0.307482    0.003122
  10 C :    0.306037    0.004223
  11 C :    0.311714   -0.000053
  12 H :   -0.445313    0.006913
  13 C :    0.310874   -0.000350
  14 H :   -0.446339    0.005265
  15 H :   -0.418714    0.000262
  16 H :   -0.416734    0.000093
  17 C :    0.307226    0.003142
  18 C :    0.306130    0.004212
  19 C :    0.311331   -0.000355
  20 H :   -0.447105    0.005296
  21 C :    0.311348   -0.000052
  22 H :   -0.445105    0.006878
  23 H :   -0.416777    0.000082
  24 H :   -0.418556    0.000274

  Mayer bond orders larger than 0.100000
B(  0-Cu,  1-S ) :   0.7951 B(  0-Cu,  3-S ) :   0.6057 B(  0-Cu,  5-S ) :   0.6001
B(  0-Cu,  7-S ) :   0.7908 B(  1-S ,  2-C ) :   1.1789 B(  2-C ,  6-C ) :   1.2425
B(  2-C , 17-C ) :   1.3185 B(  3-S ,  4-C ) :   1.1901 B(  4-C ,  8-C ) :   1.2429
B(  4-C , 10-C ) :   1.3183 B(  5-S ,  6-C ) :   1.1915 B(  6-C , 18-C ) :   1.3177
B(  7-S ,  8-C ) :   1.1798 B(  8-C ,  9-C ) :   1.3178 B(  9-C , 13-C ) :   1.3622
B(  9-C , 14-H ) :   0.9685 B( 10-C , 11-C ) :   1.3630 B( 10-C , 12-H ) :   0.9728
B( 11-C , 13-C ) :   1.3389 B( 11-C , 15-H ) :   0.9880 B( 13-C , 16-H ) :   0.9888
B( 17-C , 19-C ) :   1.3613 B( 17-C , 20-H ) :   0.9681 B( 18-C , 21-C ) :   1.3636
B( 18-C , 22-H ) :   0.9729 B( 19-C , 21-C ) :   1.3390 B( 19-C , 23-H ) :   0.9889
B( 21-C , 24-H ) :   0.9880

FINAL SINGLE POINT ENERGY     -3686.924959942095

DIPOLE MOMENT
-------------
                                X             Y             Z
Electronic contribution:     -0.03729      -0.06458       0.00000
Nuclear contribution   :      0.03255       0.06209       0.00000
                        -----------------------------------------
Total Dipole Moment    :     -0.00474      -0.00249       0.00000
                        -----------------------------------------
Magnitude (a.u.)       :      0.00536
Magnitude (Debye)      :      0.01362

Rotational constants in cm-1:     0.033530     0.004710     0.004130
Rotational constants in MHz :  1005.218604   141.190558   123.801676

                             ****ORCA TERMINATED NORMALLY****
TOTAL RUN TIME: 0 days 5 hours 5 minutes 32 seconds 175 msec
