                         Program Version 5.0.4 -  RELEASE  -
|  1> ! RIJCOSX nofrozencore ReducedPop printbasis
|  2> ! M06L ano-rcc-dzp autoaux
|  3>
|  4> %maxcore 5000
|  5> %basis
|  6> PCDTrimBas overlap
|  7> PCDTrimAuxJ Coulomb
|  8> PCDTrimAuxJK Coulomb
|  9> PCDTrimAuxC Coulomb
| 10> PCDThresh -1
| 11> end
| 12>
| 13> %basis
| 14> newgto Cu "ano-rcc-tzp" end
| 15> newgto S "ano-rcc-tzp" end
| 16> end
| 17>
| 18> %pal
| 19> nprocs 12
| 20> end
| 21>
| 22> % sym SymThresh 1e-2 end
| 23> * xyz -2 2
| 24> Cu 2.7599331015550486e-06 -3.6218707598333783e-06 -2.2945198787556225e-06
| 25> S 2.1346132775611517 -0.7053253176849386 -0.5639096980273325
| 26> C 3.1863934592285235 0.5293314916587963 0.07220531508106619
| 27> S -0.951009118775122 -1.85973402533384 -1.0045841313932637
| 28> C -2.6651574529895856 -1.6595599125662575 -0.7633011899624813
| 29> S 0.9510308366856177 1.8597412196816823 1.0045866953204892
| 30> C 2.665301008866663 1.6594823655264972 0.7632458711882628
| 31> S -2.1346299875010533 0.7053190660623113 0.5639073115816471
| 32> C -3.186465496655813 -0.5294962139614579 -0.07229518816978261
| 33> C -4.577529500711443 -0.42574846266470845 0.0896033708466069
| 34> C -3.5679243461981263 -2.6136057149506717 -1.2482412624624537
| 35> C -4.94684150089112 -2.504274642200136 -1.084007825910712
| 36> H -3.1384991711806767 -3.518885397272994 -1.8026632335824908
| 37> C -5.439231024182929 -1.3919271743409103 -0.40535557207253736
| 38> H -4.944028177461371 0.39223204875625833 0.5889834305016214
| 39> H -5.521099843204916 -3.1653466563104566 -1.4237888044779858
| 40> H -6.65432496840564 -1.2605741065606573 -0.24040944546142312
| 41> C 4.579655950112177 0.42137387797056247 -0.09228626829150913
| 42> C 3.5698908519804013 2.6091554661199865 1.245526381000352
| 43> C 5.425414305813169 1.393343073474407 0.4071862722485723
| 44> H 4.918432019051654 -0.33580837049193774 -0.5545134547141465
| 45> C 4.95552609118654 2.514157271577806 1.0890800338110553
| 46> H 3.1120524548238846 3.57526267862508 1.8371687551883324
| 47> H 6.822479542964304 1.2423061970093663 0.21753075239078157
| 48> H 5.416177919094526 3.0443849906743337 1.3616050017034036
| 49> *
| 50>
| 51> % eprnmr
| 52> gtensor true
| 53> Nuclei = all H {aiso,adip,aorb,fgrad,rho}
| 54> Nuclei = all Cu {aiso,adip,aorb,fgrad,rho}
| 55> end
| 56>
| 57>                          ****END OF INPUT****

CARTESIAN COORDINATES (ANGSTROEM)
---------------------------------
  Cu     0.000003   -0.000004    0.000000
  S      2.154878   -0.853553    0.000000
  C      3.183229    0.552774    0.000000
  S     -0.914126   -2.129928    0.000000
  C     -2.636813   -1.867363    0.000000
  S      0.914148    2.129936    0.000000
  C      2.636959    1.867272    0.000000
  S     -2.154895    0.853546    0.000000
  C     -3.183298   -0.552963    0.000000
  C     -4.580052   -0.407662    0.000000
  C     -3.521703   -2.952411    0.000000
  C     -4.906397   -2.800887    0.000000
  H     -3.072079   -4.005578    0.000000
  C     -5.423517   -1.507473    0.000000
  H     -4.964747    0.543549    0.000000
  H     -5.468139   -3.553673    0.000000
  H     -6.644441   -1.333524    0.000000
  C      4.582276    0.402573    0.000000
  C      3.523768    2.947237    0.000000
  C      5.409635    1.509361    0.000000
  H      4.937895   -0.477929    0.000000
  C      4.914895    2.812139    0.000000
  H      3.044375    4.071160    0.000000
  H      6.813404    1.309348    0.000000
  H      5.365508    3.415927    0.000000

 Total Charge           Charge          ....   -2
 Multiplicity           Mult            ....    2
 Number of Electrons    NEL             ....  175
 Basis Dimension        Dim             ....  475

ORBITAL ENERGIES
----------------
                 SPIN UP ORBITALS
  NO   OCC          E(Eh)            E(eV)    Irrep
   0   1.0000    -318.183290     -8658.2075    1-A'
   1   1.0000     -88.017533     -2395.0788    2-A'
   2   1.0000     -88.016340     -2395.0464    3-A'
   3   1.0000     -88.015433     -2395.0217    4-A'
   4   1.0000     -88.015409     -2395.0210    5-A'
   5   1.0000     -38.028516     -1034.8085    6-A'
   6   1.0000     -33.531664      -912.4430    7-A'
   7   1.0000     -33.530812      -912.4198    8-A'
   8   1.0000     -33.517010      -912.0442    1-A"
   9   1.0000      -9.854003      -268.1411    9-A'
  10   1.0000      -9.838456      -267.7180   10-A'
  11   1.0000      -9.837150      -267.6825   11-A'
  12   1.0000      -9.834707      -267.6160   12-A'
  13   1.0000      -9.833786      -267.5909   13-A'
  14   1.0000      -9.833204      -267.5751   14-A'
  15   1.0000      -9.832628      -267.5594   15-A'
  16   1.0000      -9.823699      -267.3164   16-A'
  17   1.0000      -9.812208      -267.0038   17-A'
  18   1.0000      -9.810888      -266.9678   18-A'
  19   1.0000      -9.806878      -266.8587   19-A'
  20   1.0000      -9.800179      -266.6764   20-A'
  21   1.0000      -7.586214      -206.4314   21-A'
  22   1.0000      -7.585037      -206.3993   22-A'
  23   1.0000      -7.584145      -206.3751   23-A'
  24   1.0000      -7.584127      -206.3746   24-A'
  25   1.0000      -5.509438      -149.9194   25-A'
  26   1.0000      -5.508238      -149.8868   26-A'
  27   1.0000      -5.507384      -149.8635   27-A'
  28   1.0000      -5.507358      -149.8628   28-A'
  29   1.0000      -5.504049      -149.7728   29-A'
  30   1.0000      -5.502941      -149.7426   30-A'
  31   1.0000      -5.502334      -149.7261    2-A"
  32   1.0000      -5.502069      -149.7189   31-A'
  33   1.0000      -5.502048      -149.7183   32-A'
  34   1.0000      -5.501123      -149.6932    3-A"
  35   1.0000      -5.500184      -149.6676    4-A"
  36   1.0000      -5.500135      -149.6663    5-A"
  37   1.0000      -4.026132      -109.5566   33-A'
  38   1.0000      -2.547595       -69.3236   34-A'
  39   1.0000      -2.546043       -69.2814   35-A'
  40   1.0000      -2.518569       -68.5337    6-A"
  41   1.0000      -0.595001       -16.1908   36-A'
  42   1.0000      -0.591447       -16.0941   37-A'
  43   1.0000      -0.516664       -14.0592   38-A'
  44   1.0000      -0.507399       -13.8070   39-A'
  45   1.0000      -0.494154       -13.4466   40-A'
  46   1.0000      -0.491689       -13.3795   41-A'
  47   1.0000      -0.420624       -11.4458   42-A'
  48   1.0000      -0.411960       -11.2100   43-A'
  49   1.0000      -0.389201       -10.5907   44-A'
  50   1.0000      -0.383929       -10.4472   45-A'
  51   1.0000      -0.326313        -8.8794   46-A'
  52   1.0000      -0.322671        -8.7803   47-A'
  53   1.0000      -0.317038        -8.6270   48-A'
  54   1.0000      -0.303577        -8.2608   49-A'
  55   1.0000      -0.239082        -6.5057   50-A'
  56   1.0000      -0.233179        -6.3451   51-A'
  57   1.0000      -0.193166        -5.2563   52-A'
  58   1.0000      -0.191127        -5.2008   53-A'
  59   1.0000      -0.174583        -4.7506   54-A'
  60   1.0000      -0.169381        -4.6091   55-A'
  61   1.0000      -0.157902        -4.2967   56-A'
  62   1.0000      -0.149985        -4.0813   57-A'
  63   1.0000      -0.124098        -3.3769   58-A'
  64   1.0000      -0.119817        -3.2604    7-A"
  65   1.0000      -0.118459        -3.2234    8-A"
  66   1.0000      -0.108272        -2.9462   59-A'
  67   1.0000      -0.086592        -2.3563   60-A'
  68   1.0000      -0.070472        -1.9176   61-A'
  69   1.0000      -0.066338        -1.8051   62-A'
  70   1.0000      -0.062719        -1.7067   63-A'
  71   1.0000      -0.041044        -1.1169    9-A"
  72   1.0000      -0.039208        -1.0669   10-A"
  73   1.0000      -0.033331        -0.9070   64-A'
  74   1.0000      -0.030882        -0.8404   65-A'
  75   1.0000      -0.028286        -0.7697   11-A"
  76   1.0000      -0.021367        -0.5814   12-A"
  77   1.0000      -0.004847        -0.1319   13-A"
  78   1.0000      -0.002535        -0.0690   66-A'
  79   1.0000      -0.000547        -0.0149   14-A"
  80   1.0000       0.016545         0.4502   67-A'
  81   1.0000       0.017163         0.4670   68-A'
  82   1.0000       0.033019         0.8985   69-A'
  83   1.0000       0.048228         1.3124   15-A"
  84   1.0000       0.050507         1.3744   16-A"
  85   1.0000       0.060817         1.6549   17-A"
  86   1.0000       0.085849         2.3361   18-A"
  87   1.0000       0.103113         2.8058   70-A'
  88   0.0000       0.173085         4.7099   71-A'
  89   0.0000       0.179126         4.8743   72-A'
  90   0.0000       0.196994         5.3605   73-A'
  91   0.0000       0.198427         5.3995   74-A'
  92   0.0000       0.198648         5.4055   19-A"

                 SPIN DOWN ORBITALS
  NO   OCC          E(Eh)            E(eV)    Irrep
   0   1.0000    -318.183115     -8658.2027    1-A'
   1   1.0000     -88.016483     -2395.0503    2-A'
   2   1.0000     -88.015265     -2395.0171    3-A'
   3   1.0000     -88.014364     -2394.9926    4-A'
   4   1.0000     -88.014340     -2394.9919    5-A'
   5   1.0000     -38.012636     -1034.3764    6-A'
   6   1.0000     -33.516493      -912.0301    7-A'
   7   1.0000     -33.515674      -912.0078    8-A'
   8   1.0000     -33.512683      -911.9265    1-A"
   9   1.0000      -9.853979      -268.1404    9-A'
  10   1.0000      -9.838435      -267.7174   10-A'
  11   1.0000      -9.837271      -267.6857   11-A'
  12   1.0000      -9.834825      -267.6192   12-A'
  13   1.0000      -9.833892      -267.5938   13-A'
  14   1.0000      -9.833317      -267.5781   14-A'
  15   1.0000      -9.832573      -267.5579   15-A'
  16   1.0000      -9.823640      -267.3148   16-A'
  17   1.0000      -9.812151      -267.0022   17-A'
  18   1.0000      -9.810865      -266.9672   18-A'
  19   1.0000      -9.806826      -266.8573   19-A'
  20   1.0000      -9.800155      -266.6758   20-A'
  21   1.0000      -7.585492      -206.4117   21-A'
  22   1.0000      -7.584298      -206.3793   22-A'
  23   1.0000      -7.583411      -206.3551   23-A'
  24   1.0000      -7.583393      -206.3546   24-A'
  25   1.0000      -5.508524      -149.8946   25-A'
  26   1.0000      -5.507302      -149.8613   26-A'
  27   1.0000      -5.506455      -149.8383   27-A'
  28   1.0000      -5.506428      -149.8375   28-A'
  29   1.0000      -5.501843      -149.7128   29-A'
  30   1.0000      -5.501530      -149.7043    2-A"
  31   1.0000      -5.500683      -149.6812   30-A'
  32   1.0000      -5.500304      -149.6709    3-A"
  33   1.0000      -5.499820      -149.6577   31-A'
  34   1.0000      -5.499795      -149.6570   32-A'
  35   1.0000      -5.499371      -149.6455    4-A"
  36   1.0000      -5.499322      -149.6442    5-A"
  37   1.0000      -3.992358      -108.6376   33-A'
  38   1.0000      -2.506852       -68.2149    6-A"
  39   1.0000      -2.505491       -68.1779   34-A'
  40   1.0000      -2.503908       -68.1348   35-A'
  41   1.0000      -0.594682       -16.1821   36-A'
  42   1.0000      -0.591092       -16.0844   37-A'
  43   1.0000      -0.515680       -14.0324   38-A'
  44   1.0000      -0.506176       -13.7737   39-A'
  45   1.0000      -0.493056       -13.4167   40-A'
  46   1.0000      -0.490634       -13.3508   41-A'
  47   1.0000      -0.417084       -11.3494   42-A'
  48   1.0000      -0.408056       -11.1038   43-A'
  49   1.0000      -0.385664       -10.4944   44-A'
  50   1.0000      -0.380583       -10.3562   45-A'
  51   1.0000      -0.325427        -8.8553   46-A'
  52   1.0000      -0.321377        -8.7451   47-A'
  53   1.0000      -0.314770        -8.5653   48-A'
  54   1.0000      -0.301576        -8.2063   49-A'
  55   1.0000      -0.237828        -6.4716   50-A'
  56   1.0000      -0.232359        -6.3228   51-A'
  57   1.0000      -0.192238        -5.2310   52-A'
  58   1.0000      -0.190201        -5.1756   53-A'
  59   1.0000      -0.173967        -4.7339   54-A'
  60   1.0000      -0.169004        -4.5988   55-A'
  61   1.0000      -0.156733        -4.2649   56-A'
  62   1.0000      -0.148980        -4.0540   57-A'
  63   1.0000      -0.122468        -3.3325   58-A'
  64   1.0000      -0.119632        -3.2554    7-A"
  65   1.0000      -0.118272        -3.2183    8-A"
  66   1.0000      -0.107072        -2.9136   59-A'
  67   1.0000      -0.084819        -2.3080   60-A'
  68   1.0000      -0.068985        -1.8772   61-A'
  69   1.0000      -0.061432        -1.6717   62-A'
  70   1.0000      -0.052211        -1.4207   63-A'
  71   1.0000      -0.039258        -1.0683    9-A"
  72   1.0000      -0.038099        -1.0367   10-A"
  73   1.0000      -0.025234        -0.6866   11-A"
  74   1.0000      -0.024160        -0.6574   64-A'
  75   1.0000      -0.020533        -0.5587   12-A"
  76   1.0000      -0.004342        -0.1182   65-A'
  77   1.0000       0.004877         0.1327   13-A"
  78   1.0000       0.008288         0.2255   66-A'
  79   1.0000       0.011751         0.3198   14-A"
  80   1.0000       0.023938         0.6514   67-A'
  81   1.0000       0.032322         0.8795   68-A'
  82   1.0000       0.041301         1.1239   69-A'
  83   1.0000       0.051097         1.3904   15-A"
  84   1.0000       0.056075         1.5259   16-A"
  85   1.0000       0.062673         1.7054   17-A"
  86   1.0000       0.090011         2.4493   18-A"
  87   0.0000       0.136100         3.7035   70-A'
  88   0.0000       0.174790         4.7563   71-A'
  89   0.0000       0.180641         4.9155   72-A'
  90   0.0000       0.198418         5.3992   73-A'
  91   0.0000       0.198667         5.4060   19-A"

MULLIKEN ATOMIC CHARGES AND SPIN POPULATIONS
--------------------------------------------
   0 Cu:    0.141567    0.375851
   1 S :   -0.426319    0.159262
   2 C :    0.008161   -0.007459
   3 S :   -0.421190    0.163222
   4 C :    0.027324   -0.007295
   5 S :   -0.416826    0.163210
   6 C :    0.027748   -0.007191
   7 S :   -0.425193    0.163572
   8 C :    0.017143   -0.007720
   9 C :   -0.119948   -0.001952
  10 C :   -0.087276   -0.001244
  11 C :   -0.252405   -0.000588
  12 H :    0.004634    0.001631
  13 C :   -0.117846   -0.001256
  14 H :    0.141010    0.002479
  15 H :    0.253503    0.000521
  16 H :   -0.087258    0.002000
  17 C :   -0.190601   -0.002310
  18 C :   -0.092428   -0.000915
  19 C :   -0.146930   -0.001375
  20 H :    0.260018    0.002907
  21 C :   -0.602425   -0.000343
  22 H :   -0.043197    0.001301
  23 H :   -0.153520    0.003571
  24 H :    0.702253    0.000118
Sum of atomic charges         :   -2.0000000

LOEWDIN ATOMIC CHARGES AND SPIN POPULATIONS
-------------------------------------------
   0 Cu:   -0.892467    0.442256
   1 S :    0.021748    0.122145
   2 C :   -0.013933    0.005026
   3 S :    0.005473    0.123890
   4 C :   -0.046034    0.005190
   5 S :    0.000774    0.123838
   6 C :   -0.053535    0.005295
   7 S :    0.015244    0.124880
   8 C :   -0.028693    0.005156
   9 C :    0.321881    0.003945
  10 C :    0.303621    0.003789
  11 C :    0.380107   -0.000119
  12 H :   -0.384939    0.006321
  13 C :    0.283531   -0.000123
  14 H :   -0.515449    0.006209
  15 H :   -0.592320   -0.000074
  16 H :   -0.292357    0.000721
  17 C :    0.359170    0.003868
  18 C :    0.315986    0.003730
  19 C :    0.294999    0.000069
  20 H :   -0.614281    0.005914
  21 C :    0.524534   -0.000088
  22 H :   -0.316511    0.006369
  23 H :   -0.194286    0.002037
  24 H :   -0.882262   -0.000244

  Mayer bond orders larger than 0.100000
B(  0-Cu,  1-S ) :   0.6969 B(  0-Cu,  3-S ) :   0.7035 B(  0-Cu,  5-S ) :   0.7038
B(  0-Cu,  7-S ) :   0.7013 B(  1-S ,  2-C ) :   1.1936 B(  2-C ,  6-C ) :   1.2423
B(  2-C , 17-C ) :   1.3284 B(  3-S ,  4-C ) :   1.1825 B(  4-C ,  8-C ) :   1.2435
B(  4-C , 10-C ) :   1.3191 B(  5-S ,  6-C ) :   1.1808 B(  6-C , 18-C ) :   1.3247
B(  7-S ,  8-C ) :   1.1884 B(  8-C ,  9-C ) :   1.3202 B(  9-C , 13-C ) :   1.3711
B(  9-C , 14-H ) :   0.9261 B( 10-C , 11-C ) :   1.3829 B( 10-C , 12-H ) :   0.9950
B( 11-C , 13-C ) :   1.3645 B( 11-C , 15-H ) :   0.8371 B( 13-C , 16-H ) :   1.0136
B( 17-C , 19-C ) :   1.4018 B( 17-C , 20-H ) :   0.8355 B( 18-C , 21-C ) :   1.4418
B( 18-C , 22-H ) :   1.0018 B( 19-C , 21-C ) :   1.4392 B( 19-C , 23-H ) :   0.9784
B( 21-C , 24-H ) :   0.2643

FINAL SINGLE POINT ENERGY     -3686.693451633539

DIPOLE MOMENT
-------------
                                X             Y             Z
Electronic contribution:     -0.20725      -0.00705       0.00000
Nuclear contribution   :      0.01103      -0.02880       0.00000
                        -----------------------------------------
Total Dipole Moment    :     -0.19621      -0.03585       0.00000
                        -----------------------------------------
Magnitude (a.u.)       :      0.19946
Magnitude (Debye)      :      0.50699

Rotational constants in cm-1:     0.033416     0.004804     0.004200
Rotational constants in MHz :  1001.776611   144.011017   125.910653

                             ****ORCA TERMINATED NORMALLY****
TOTAL RUN TIME: 0 days 6 hours 52 minutes 28 seconds 365 msec
