                         Program Version 5.0.4 -  RELEASE  -
|  1> ! RIJCOSX nofrozencore ReducedPop printbasis
|  2> ! M06L ano-rcc-dzp autoaux
|  3>
|  4> %maxcore 5000
|  5> %basis
|  6> PCDTrimBas overlap
|  7> PCDTrimAuxJ Coulomb
|  8> PCDTrimAuxJK Coulomb
|  9> PCDTrimAuxC Coulomb
| 10> PCDThresh -1
| 11> end
| 12>
| 13> %basis
| 14> newgto Cu "ano-rcc-tzp" end
| 15> newgto S "ano-rcc-tzp" end
| 16> end
| 17>
| 18> %pal
| 19> nprocs 12
| 20> end
| 21>
| 22> % sym SymThresh 1e-2 end
| 23> * xyz -2 2
| 24> Cu 0.0002278231044836282 -7.299555199362338e-05 -0.0001535782616537511
| 25> S -1.6089484588096947 0.9417400003922409 1.3567426844984758
| 26> C -0.7125466298364732 2.5301118077853753 1.9499671858612657
| 27> S -1.3925109640767608 -1.79958140153088 -0.49513005475144006
| 28> C -0.5945223761723415 -2.768223132642851 -1.4882673977069427
| 29> S 1.3866025991425504 1.8052037959961331 0.5014940099116593
| 30> C 0.6162183748473583 2.765313286445726 1.4762223310569502
| 31> S 1.6036962351050705 -0.9511205533203003 -1.3602657174135164
| 32> C 0.7311757785769535 -2.515728103363415 -1.9495308542136238
| 33> C 1.4629116791158356 -3.363833353649665 -2.834600974946128
| 34> C -1.0971032451154 -3.9426483200102544 -2.0021164681405463
| 35> C -0.30998238081005247 -4.702857169748592 -2.85707322477489
| 36> H -2.0976881016108155 -4.333427956839471 -1.7817982562544787
| 37> C 0.9949839845396086 -4.566886982152718 -3.382999572864846
| 38> H 2.4611807211033865 -2.9551655594807147 -3.0424107952827555
| 39> H -0.8734722890404047 -5.591668679048495 -3.1599676513538197
| 40> H 1.4707141339586853 -5.275196983263169 -4.058608977685127
| 41> C -1.4570753066542828 3.3752977115116503 2.839180167047618
| 42> C 1.1087875964440868 3.9376368774040524 1.9934305071670821
| 43> C -1.0118200714439534 4.583107767789332 3.4012613058899546
| 44> H -2.4534637798977044 2.9362331426367265 3.0266996115949008
| 45> C 0.29593353637199776 4.678167364271245 2.84790612417295
| 46> H 2.1076557264405262 4.360972132805435 1.7947040925547777
| 47> H -1.4693470846934529 5.305718871851306 4.077454335557021
| 48> H 0.8738122080236917 5.563973573366609 3.1421243313052964
| 49> *
| 50>
| 51> % eprnmr
| 52> gtensor true
| 53> Nuclei = all H {aiso,adip,aorb,fgrad,rho}
| 54> Nuclei = all Cu {aiso,adip,aorb,fgrad,rho}
| 55> end
| 56>
| 57>                          ****END OF INPUT****

CARTESIAN COORDINATES (ANGSTROEM)
---------------------------------
  Cu     0.000260   -0.000115    0.000000
  S     -1.894298    1.314525    0.000000
  C     -1.127537    3.072494    0.000000
  S     -1.282344   -1.943792    0.000000
  C     -0.274322   -3.186880    0.000000
  S      1.275092    1.951170    0.000000
  C      0.298529    3.180691    0.000000
  S      1.889815   -1.324913    0.000000
  C      1.146016   -3.057912    0.000000
  C      2.064868   -4.150514    0.000000
  C     -0.665443   -4.507080    0.000000
  C      0.302183   -5.503136    0.000000
  H     -1.710112   -4.840374    0.000000
  C      1.715686   -5.508862    0.000000
  H      3.104553   -3.795844    0.000000
  H     -0.194791   -6.478979    0.000000
  H      2.334502   -6.404148    0.000000
  C     -2.060029    4.163283    0.000000
  C      0.678949    4.499687    0.000000
  C     -1.736378    5.530120    0.000000
  H     -3.093498    3.772549    0.000000
  C     -0.314228    5.475825    0.000000
  H      1.717288    4.871568    0.000000
  H     -2.337171    6.439946    0.000000
  H      0.198947    6.446295    0.000000

 Total Charge           Charge          ....   -2
 Multiplicity           Mult            ....    2
 Number of Electrons    NEL             ....  175
 Basis Dimension        Dim             ....  475

ORBITAL ENERGIES
----------------
                 SPIN UP ORBITALS
  NO   OCC          E(Eh)            E(eV)    Irrep
   0   1.0000    -318.182525     -8658.1867    1-A'
   1   1.0000     -88.015173     -2395.0146    2-A'
   2   1.0000     -88.015125     -2395.0133    3-A'
   3   1.0000     -88.014131     -2394.9863    4-A'
   4   1.0000     -88.013626     -2394.9725    5-A'
   5   1.0000     -38.027674     -1034.7856    6-A'
   6   1.0000     -33.530768      -912.4186    7-A'
   7   1.0000     -33.529932      -912.3958    8-A'
   8   1.0000     -33.516319      -912.0254    1-A"
   9   1.0000      -9.836305      -267.6595    9-A'
  10   1.0000      -9.835700      -267.6430   10-A'
  11   1.0000      -9.834617      -267.6135   11-A'
  12   1.0000      -9.832184      -267.5473   12-A'
  13   1.0000      -9.828152      -267.4376   13-A'
  14   1.0000      -9.827428      -267.4179   14-A'
  15   1.0000      -9.827163      -267.4107   15-A'
  16   1.0000      -9.825403      -267.3628   16-A'
  17   1.0000      -9.824719      -267.3442   17-A'
  18   1.0000      -9.824170      -267.3293   18-A'
  19   1.0000      -9.817441      -267.1461   19-A'
  20   1.0000      -9.815988      -267.1066   20-A'
  21   1.0000      -7.588095      -206.4826   21-A'
  22   1.0000      -7.587258      -206.4598   22-A'
  23   1.0000      -7.581332      -206.2985   23-A'
  24   1.0000      -7.580856      -206.2856   24-A'
  25   1.0000      -5.510154      -149.9389   25-A'
  26   1.0000      -5.509532      -149.9220   26-A'
  27   1.0000      -5.505370      -149.8087   27-A'
  28   1.0000      -5.505214      -149.8045   28-A'
  29   1.0000      -5.504861      -149.7949   29-A'
  30   1.0000      -5.504724      -149.7911   30-A'
  31   1.0000      -5.504602      -149.7878    2-A"
  32   1.0000      -5.503692      -149.7631    3-A"
  33   1.0000      -5.499506      -149.6492   31-A'
  34   1.0000      -5.499128      -149.6389   32-A'
  35   1.0000      -5.497043      -149.5821    4-A"
  36   1.0000      -5.496486      -149.5670    5-A"
  37   1.0000      -4.025254      -109.5327   33-A'
  38   1.0000      -2.546592       -69.2963   34-A'
  39   1.0000      -2.545081       -69.2552   35-A'
  40   1.0000      -2.517931       -68.5164    6-A"
  41   1.0000      -0.595610       -16.2074   36-A'
  42   1.0000      -0.594066       -16.1654   37-A'
  43   1.0000      -0.525437       -14.2979   38-A'
  44   1.0000      -0.520861       -14.1734   39-A'
  45   1.0000      -0.476693       -12.9715   40-A'
  46   1.0000      -0.472970       -12.8702   41-A'
  47   1.0000      -0.424591       -11.5537   42-A'
  48   1.0000      -0.421275       -11.4635   43-A'
  49   1.0000      -0.375015       -10.2047   44-A'
  50   1.0000      -0.368308       -10.0222   45-A'
  51   1.0000      -0.319640        -8.6979   46-A'
  52   1.0000      -0.317430        -8.6377   47-A'
  53   1.0000      -0.301817        -8.2129   48-A'
  54   1.0000      -0.298755        -8.1295   49-A'
  55   1.0000      -0.236900        -6.4464   50-A'
  56   1.0000      -0.233216        -6.3461   51-A'
  57   1.0000      -0.189313        -5.1515   52-A'
  58   1.0000      -0.187268        -5.0958   53-A'
  59   1.0000      -0.172934        -4.7058   54-A'
  60   1.0000      -0.171098        -4.6558   55-A'
  61   1.0000      -0.164313        -4.4712   56-A'
  62   1.0000      -0.158694        -4.3183   57-A'
  63   1.0000      -0.121695        -3.3115    7-A"
  64   1.0000      -0.120517        -3.2794    8-A"
  65   1.0000      -0.104330        -2.8390   58-A'
  66   1.0000      -0.089349        -2.4313   59-A'
  67   1.0000      -0.086752        -2.3606   60-A'
  68   1.0000      -0.080897        -2.2013   61-A'
  69   1.0000      -0.058166        -1.5828   62-A'
  70   1.0000      -0.050971        -1.3870    9-A"
  71   1.0000      -0.047659        -1.2969   10-A"
  72   1.0000      -0.045286        -1.2323   63-A'
  73   1.0000      -0.031522        -0.8577   64-A'
  74   1.0000      -0.028793        -0.7835   65-A'
  75   1.0000      -0.019568        -0.5325   11-A"
  76   1.0000      -0.009500        -0.2585   12-A"
  77   1.0000      -0.004637        -0.1262   13-A"
  78   1.0000      -0.000428        -0.0116   66-A'
  79   1.0000       0.004499         0.1224   14-A"
  80   1.0000       0.017685         0.4812   67-A'
  81   1.0000       0.018819         0.5121   68-A'
  82   1.0000       0.034791         0.9467   69-A'
  83   1.0000       0.047783         1.3002   15-A"
  84   1.0000       0.050183         1.3655   16-A"
  85   1.0000       0.063251         1.7211   17-A"
  86   1.0000       0.087470         2.3802   18-A"
  87   1.0000       0.104251         2.8368   70-A'
  88   0.0000       0.179636         4.8881   71-A'
  89   0.0000       0.180075         4.9001   72-A'
  90   0.0000       0.197809         5.3826   73-A'
  91   0.0000       0.198318         5.3965   74-A'
  92   0.0000       0.199480         5.4281   19-A"

                 SPIN DOWN ORBITALS
  NO   OCC          E(Eh)            E(eV)    Irrep
   0   1.0000    -318.182349     -8658.1819    1-A'
   1   1.0000     -88.014132     -2394.9863    2-A'
   2   1.0000     -88.014052     -2394.9841    3-A'
   3   1.0000     -88.013032     -2394.9564    4-A'
   4   1.0000     -88.012556     -2394.9434    5-A'
   5   1.0000     -38.011921     -1034.3570    6-A'
   6   1.0000     -33.515719      -912.0091    7-A'
   7   1.0000     -33.514917      -911.9873    8-A'
   8   1.0000     -33.512016      -911.9083    1-A"
   9   1.0000      -9.836387      -267.6617    9-A'
  10   1.0000      -9.835787      -267.6454   10-A'
  11   1.0000      -9.834611      -267.6134   11-A'
  12   1.0000      -9.832178      -267.5472   12-A'
  13   1.0000      -9.828274      -267.4409   13-A'
  14   1.0000      -9.827551      -267.4213   14-A'
  15   1.0000      -9.827139      -267.4100   15-A'
  16   1.0000      -9.825364      -267.3617   16-A'
  17   1.0000      -9.824695      -267.3435   17-A'
  18   1.0000      -9.824133      -267.3282   18-A'
  19   1.0000      -9.817286      -267.1419   19-A'
  20   1.0000      -9.815851      -267.1029   20-A'
  21   1.0000      -7.587361      -206.4626   21-A'
  22   1.0000      -7.586503      -206.4392   22-A'
  23   1.0000      -7.580626      -206.2793   23-A'
  24   1.0000      -7.580127      -206.2657   24-A'
  25   1.0000      -5.509165      -149.9120   25-A'
  26   1.0000      -5.508524      -149.8945   26-A'
  27   1.0000      -5.504332      -149.7805   27-A'
  28   1.0000      -5.503950      -149.7701   28-A'
  29   1.0000      -5.503773      -149.7653    2-A"
  30   1.0000      -5.503205      -149.7498   29-A'
  31   1.0000      -5.502841      -149.7399    3-A"
  32   1.0000      -5.502486      -149.7303   30-A'
  33   1.0000      -5.497297      -149.5891   31-A'
  34   1.0000      -5.496840      -149.5766   32-A'
  35   1.0000      -5.496266      -149.5610    4-A"
  36   1.0000      -5.495685      -149.5452    5-A"
  37   1.0000      -3.991821      -108.6230   33-A'
  38   1.0000      -2.506279       -68.1993    6-A"
  39   1.0000      -2.505195       -68.1698   34-A'
  40   1.0000      -2.503090       -68.1125   35-A'
  41   1.0000      -0.594968       -16.1899   36-A'
  42   1.0000      -0.593509       -16.1502   37-A'
  43   1.0000      -0.523947       -14.2573   38-A'
  44   1.0000      -0.519368       -14.1327   39-A'
  45   1.0000      -0.475844       -12.9484   40-A'
  46   1.0000      -0.472130       -12.8473   41-A'
  47   1.0000      -0.421611       -11.4726   42-A'
  48   1.0000      -0.418074       -11.3764   43-A'
  49   1.0000      -0.370932       -10.0936   44-A'
  50   1.0000      -0.364176        -9.9097   45-A'
  51   1.0000      -0.318548        -8.6681   46-A'
  52   1.0000      -0.316191        -8.6040   47-A'
  53   1.0000      -0.299945        -8.1619   48-A'
  54   1.0000      -0.296525        -8.0689   49-A'
  55   1.0000      -0.236295        -6.4299   50-A'
  56   1.0000      -0.232550        -6.3280   51-A'
  57   1.0000      -0.188062        -5.1174   52-A'
  58   1.0000      -0.186197        -5.0667   53-A'
  59   1.0000      -0.172264        -4.6876   54-A'
  60   1.0000      -0.169891        -4.6230   55-A'
  61   1.0000      -0.163342        -4.4448   56-A'
  62   1.0000      -0.157738        -4.2923   57-A'
  63   1.0000      -0.121357        -3.3023    7-A"
  64   1.0000      -0.120220        -3.2714    8-A"
  65   1.0000      -0.102884        -2.7996   58-A'
  66   1.0000      -0.087774        -2.3885   59-A'
  67   1.0000      -0.084067        -2.2876   60-A'
  68   1.0000      -0.078559        -2.1377   61-A'
  69   1.0000      -0.049618        -1.3502    9-A"
  70   1.0000      -0.046493        -1.2651   10-A"
  71   1.0000      -0.046393        -1.2624   62-A'
  72   1.0000      -0.042267        -1.1501   63-A'
  73   1.0000      -0.022123        -0.6020   64-A'
  74   1.0000      -0.014515        -0.3950   11-A"
  75   1.0000      -0.008516        -0.2317   12-A"
  76   1.0000      -0.003170        -0.0862   65-A'
  77   1.0000       0.005661         0.1540   13-A"
  78   1.0000       0.010264         0.2793   66-A'
  79   1.0000       0.014192         0.3862   14-A"
  80   1.0000       0.025496         0.6938   67-A'
  81   1.0000       0.032940         0.8964   68-A'
  82   1.0000       0.042937         1.1684   69-A'
  83   1.0000       0.050417         1.3719   15-A"
  84   1.0000       0.055581         1.5124   16-A"
  85   1.0000       0.065180         1.7736   17-A"
  86   1.0000       0.091624         2.4932   18-A"
  87   0.0000       0.136809         3.7228   70-A'
  88   0.0000       0.180877         4.9219   71-A'
  89   0.0000       0.181289         4.9331   72-A'
  90   0.0000       0.199145         5.4190   73-A'
  91   0.0000       0.199493         5.4285   74-A'

MULLIKEN ATOMIC CHARGES AND SPIN POPULATIONS
--------------------------------------------
   0 Cu:    0.140241    0.373643
   1 S :   -0.470255    0.170928
   2 C :   -0.032813   -0.006604
   3 S :   -0.360314    0.160372
   4 C :    0.075093   -0.009881
   5 S :   -0.339957    0.155313
   6 C :    0.081286   -0.010384
   7 S :   -0.466495    0.165042
   8 C :   -0.023794   -0.006497
   9 C :   -0.058386   -0.002125
  10 C :   -0.097375    0.001605
  11 C :   -0.051381    0.000240
  12 H :    0.031487    0.001037
  13 C :   -0.244369   -0.001959
  14 H :    0.079116    0.002454
  15 H :    0.050613    0.001532
  16 H :   -0.004036    0.000775
  17 C :   -0.052396   -0.002012
  18 C :   -0.098312    0.002554
  19 C :   -0.255644   -0.002047
  20 H :    0.076886    0.002577
  21 C :   -0.043790    0.000435
  22 H :    0.022528    0.000687
  23 H :   -0.008686    0.000737
  24 H :    0.050752    0.001578
Sum of atomic charges         :   -2.0000000

LOEWDIN ATOMIC CHARGES AND SPIN POPULATIONS
-------------------------------------------
   0 Cu:   -0.889793    0.439524
   1 S :   -0.010817    0.127700
   2 C :    0.057457    0.001185
   3 S :    0.051075    0.123531
   4 C :   -0.140818    0.009752
   5 S :    0.062348    0.118997
   6 C :   -0.165392    0.010504
   7 S :   -0.008349    0.123122
   8 C :    0.041830    0.001733
   9 C :    0.295947    0.002593
  10 C :    0.304115    0.006199
  11 C :    0.310779    0.000421
  12 H :   -0.408669    0.004297
  13 C :    0.323398   -0.000729
  14 H :   -0.475799    0.008436
  15 H :   -0.450274    0.000576
  16 H :   -0.397371   -0.000147
  17 C :    0.290664    0.002626
  18 C :    0.303600    0.006571
  19 C :    0.326301   -0.000757
  20 H :   -0.480055    0.009206
  21 C :    0.311964    0.000467
  22 H :   -0.398275    0.003753
  23 H :   -0.393759   -0.000186
  24 H :   -0.460109    0.000624

  Mayer bond orders larger than 0.100000
B(  0-Cu,  1-S ) :   0.7398 B(  0-Cu,  3-S ) :   0.6644 B(  0-Cu,  5-S ) :   0.6558
B(  0-Cu,  7-S ) :   0.7341 B(  1-S ,  2-C ) :   1.0670 B(  2-C ,  6-C ) :   1.2207
B(  2-C , 17-C ) :   1.3747 B(  3-S ,  4-C ) :   1.3285 B(  4-C ,  8-C ) :   1.2280
B(  4-C , 10-C ) :   1.2531 B(  5-S ,  6-C ) :   1.3636 B(  6-C , 18-C ) :   1.2396
B(  7-S ,  8-C ) :   1.0838 B(  8-C ,  9-C ) :   1.3680 B(  9-C , 13-C ) :   1.3326
B(  9-C , 14-H ) :   0.9597 B( 10-C , 11-C ) :   1.3770 B( 10-C , 12-H ) :   0.9915
B( 11-C , 13-C ) :   1.3205 B( 11-C , 15-H ) :   0.9753 B( 13-C , 16-H ) :   1.0205
B( 17-C , 19-C ) :   1.3252 B( 17-C , 20-H ) :   0.9607 B( 18-C , 21-C ) :   1.3784
B( 18-C , 22-H ) :   0.9968 B( 19-C , 21-C ) :   1.3131 B( 19-C , 23-H ) :   1.0248
B( 21-C , 24-H ) :   0.9758

FINAL SINGLE POINT ENERGY     -3686.822600457562

DIPOLE MOMENT
-------------
                                X             Y             Z
Electronic contribution:      0.03108      -0.03127       0.00000
Nuclear contribution   :      0.01749       0.01102       0.00000
                        -----------------------------------------
Total Dipole Moment    :      0.04857      -0.02026       0.00000
                        -----------------------------------------
Magnitude (a.u.)       :      0.05262
Magnitude (Debye)      :      0.13376

Rotational constants in cm-1:     0.033366     0.004801     0.004197
Rotational constants in MHz :  1000.301130   143.931940   125.826885

                             ****ORCA TERMINATED NORMALLY****
TOTAL RUN TIME: 0 days 6 hours 29 minutes 30 seconds 448 msec
