                         Program Version 5.0.4 -  RELEASE  -
|  1> ! RIJCOSX nofrozencore ReducedPop printbasis
|  2> ! M06L ano-rcc-dzp autoaux
|  3>
|  4> %maxcore 5000
|  5> %basis
|  6> PCDTrimBas overlap
|  7> PCDTrimAuxJ Coulomb
|  8> PCDTrimAuxJK Coulomb
|  9> PCDTrimAuxC Coulomb
| 10> PCDThresh -1
| 11> end
| 12>
| 13> %basis
| 14> newgto Cu "ano-rcc-tzp" end
| 15> newgto S "ano-rcc-tzp" end
| 16> end
| 17>
| 18> %pal
| 19> nprocs 12
| 20> end
| 21>
| 22> % sym SymThresh 1e-2 end
| 23> * xyz -2 2
| 24> Cu 8.114079482112459e-05 0.00014655168043635722 0.00023715770360052817
| 25> S 1.1066277899437775 -0.1587345000753426 2.031399899594115
| 26> C 0.9746561656065108 1.4602931544814592 2.68139095914654
| 27> S 0.40454506581226757 -2.231578735514504 -0.4694062000734934
| 28> C -0.2977684376241503 -2.571060014447772 -2.0040959684744877
| 29> S -0.4049067109935991 2.234125159037491 0.47013335136751366
| 30> C 0.34822208442952196 2.4515882930317034 2.034127725514663
| 31> S -1.1053827698102465 0.15847583038785204 -2.0291591140488485
| 32> C -1.0500619385084597 -1.4033266756965586 -2.7940764947263523
| 33> C -1.5326330726478643 -1.7439778627835054 -3.9084687691309545
| 34> C -0.3180221522988891 -3.7145738349949586 -2.680541586956453
| 35> C -0.7597257721048539 -4.102169466770078 -3.7428231119601376
| 36> H 0.18248262493831294 -4.526843176620872 -2.174686623259008
| 37> C -1.576195267886363 -2.8439364567969445 -4.605278039849263
| 38> H -2.0665426070980106 -1.024283275346438 -4.5299371800844135
| 39> H -0.9135785973832256 -4.966847247990988 -4.519713458764465
| 40> H -1.937274227639667 -3.3375188232588973 -5.5722111501476395
| 41> C 1.5867149202998585 1.6947893224173183 3.984642226162853
| 42> C 0.26741189746839467 3.7871497298362375 2.624059757179258
| 43> C 1.4720368690016428 3.0528892797771565 4.522263160855364
| 44> H 2.0834257892174524 0.8553999445121245 4.468106699091382
| 45> C 0.8977177423415866 3.959034000997809 3.9273524282362797
| 46> H -0.25439040395370166 4.55177376274447 2.0508381608155526
| 47> H 1.9834327363553312 3.0409506250420013 5.495262322446824
| 48> H 0.7420262050347022 5.007248270967451 4.213607246578313
| 49> *
| 50>
| 51> % eprnmr
| 52> gtensor true
| 53> Nuclei = all H {aiso,adip,aorb,fgrad,rho}
| 54> Nuclei = all Cu {aiso,adip,aorb,fgrad,rho}
| 55> end
| 56>
| 57>                          ****END OF INPUT****

CARTESIAN COORDINATES (ANGSTROEM)
---------------------------------
  Cu     0.000135    0.000257    0.000000
  S     -0.313474    2.297421    0.000000
  C      1.321690    2.919829    0.000000
  S     -2.284999   -0.377785    0.000000
  C     -2.525639   -2.082442    0.000000
  S      2.287592    0.378432    0.000000
  C      2.399274    2.124312    0.000000
  S      0.313041   -2.294881    0.000000
  C     -1.254247   -3.050522    0.000000
  C     -1.526827   -4.281980    0.000000
  C     -3.664660   -2.766724    0.000000
  C     -3.989840   -3.936354    0.000000
  H     -4.545843   -2.142471    0.000000
  C     -2.619092   -4.992125    0.000000
  H     -0.733407   -5.030129    0.000000
  H     -4.831720   -4.752524    0.000000
  H     -3.061395   -6.047269    0.000000
  C      1.470136    4.371047    0.000000
  C      3.744218    2.698246    0.000000
  C      2.842328    4.884574    0.000000
  H      0.562403    4.971926    0.000000
  C      3.827587    4.153736    0.000000
  H      4.580807    2.001374    0.000000
  H      2.758792    5.980665    0.000000
  H      4.896087    4.405220    0.000000

 Total Charge           Charge          ....   -2
 Multiplicity           Mult            ....    2
 Number of Electrons    NEL             ....  175
 Basis Dimension        Dim             ....  475

ORBITAL ENERGIES
----------------
                 SPIN UP ORBITALS
  NO   OCC          E(Eh)            E(eV)    Irrep
   0   1.0000    -318.184942     -8658.2525    1-A'
   1   1.0000     -88.024158     -2395.2591    2-A'
   2   1.0000     -88.016897     -2395.0615    3-A'
   3   1.0000     -88.016429     -2395.0488    4-A'
   4   1.0000     -88.016194     -2395.0424    5-A'
   5   1.0000     -38.030151     -1034.8530    6-A'
   6   1.0000     -33.533345      -912.4887    7-A'
   7   1.0000     -33.532371      -912.4622    8-A'
   8   1.0000     -33.518703      -912.0903    1-A"
   9   1.0000      -9.835136      -267.6277    9-A'
  10   1.0000      -9.834426      -267.6083   10-A'
  11   1.0000      -9.833790      -267.5910   11-A'
  12   1.0000      -9.829007      -267.4609   12-A'
  13   1.0000      -9.828617      -267.4503   13-A'
  14   1.0000      -9.825437      -267.3637   14-A'
  15   1.0000      -9.824354      -267.3343   15-A'
  16   1.0000      -9.824154      -267.3288   16-A'
  17   1.0000      -9.824066      -267.3264   17-A'
  18   1.0000      -9.822466      -267.2829   18-A'
  19   1.0000      -9.798761      -266.6378   19-A'
  20   1.0000      -9.796509      -266.5766   20-A'
  21   1.0000      -7.592396      -206.5996   21-A'
  22   1.0000      -7.585178      -206.4032   22-A'
  23   1.0000      -7.585085      -206.4007   23-A'
  24   1.0000      -7.584953      -206.3971   24-A'
  25   1.0000      -5.515438      -150.0827   25-A'
  26   1.0000      -5.509973      -149.9340   26-A'
  27   1.0000      -5.508989      -149.9072    2-A"
  28   1.0000      -5.508355      -149.8900   27-A'
  29   1.0000      -5.508338      -149.8895   28-A'
  30   1.0000      -5.508193      -149.8856   29-A'
  31   1.0000      -5.503158      -149.7485   30-A'
  32   1.0000      -5.503014      -149.7446   31-A'
  33   1.0000      -5.502993      -149.7441   32-A'
  34   1.0000      -5.501410      -149.7010    3-A"
  35   1.0000      -5.501007      -149.6900    4-A"
  36   1.0000      -5.500873      -149.6864    5-A"
  37   1.0000      -4.027725      -109.6000   33-A'
  38   1.0000      -2.549275       -69.3693   34-A'
  39   1.0000      -2.547479       -69.3204   35-A'
  40   1.0000      -2.520229       -68.5789    6-A"
  41   1.0000      -0.597522       -16.2594   36-A'
  42   1.0000      -0.593522       -16.1506   37-A'
  43   1.0000      -0.526727       -14.3330   38-A'
  44   1.0000      -0.523334       -14.2406   39-A'
  45   1.0000      -0.483262       -13.1502   40-A'
  46   1.0000      -0.477842       -13.0027   41-A'
  47   1.0000      -0.424266       -11.5449   42-A'
  48   1.0000      -0.403975       -10.9927   43-A'
  49   1.0000      -0.392254       -10.6738   44-A'
  50   1.0000      -0.375966       -10.2305   45-A'
  51   1.0000      -0.339389        -9.2352   46-A'
  52   1.0000      -0.318792        -8.6748   47-A'
  53   1.0000      -0.297775        -8.1029   48-A'
  54   1.0000      -0.291513        -7.9325   49-A'
  55   1.0000      -0.242678        -6.6036   50-A'
  56   1.0000      -0.233214        -6.3461   51-A'
  57   1.0000      -0.197762        -5.3814   52-A'
  58   1.0000      -0.183915        -5.0046   53-A'
  59   1.0000      -0.179630        -4.8880   54-A'
  60   1.0000      -0.174753        -4.7553   55-A'
  61   1.0000      -0.155699        -4.2368   56-A'
  62   1.0000      -0.138685        -3.7738   57-A'
  63   1.0000      -0.124918        -3.3992   58-A'
  64   1.0000      -0.124218        -3.3801    7-A"
  65   1.0000      -0.121059        -3.2942    8-A"
  66   1.0000      -0.109551        -2.9810   59-A'
  67   1.0000      -0.096473        -2.6252   60-A'
  68   1.0000      -0.075691        -2.0597   61-A'
  69   1.0000      -0.057853        -1.5743    9-A"
  70   1.0000      -0.052466        -1.4277   10-A"
  71   1.0000      -0.051330        -1.3968   62-A'
  72   1.0000      -0.033320        -0.9067   63-A'
  73   1.0000      -0.030194        -0.8216   64-A'
  74   1.0000      -0.024721        -0.6727   11-A"
  75   1.0000      -0.019189        -0.5222   12-A"
  76   1.0000      -0.006106        -0.1662   65-A'
  77   1.0000      -0.002232        -0.0607   13-A"
  78   1.0000       0.001771         0.0482   14-A"
  79   1.0000       0.005155         0.1403   66-A'
  80   1.0000       0.014385         0.3914   67-A'
  81   1.0000       0.030098         0.8190   68-A'
  82   1.0000       0.032970         0.8971   69-A'
  83   1.0000       0.039366         1.0712   15-A"
  84   1.0000       0.054618         1.4862   16-A"
  85   1.0000       0.062082         1.6893   17-A"
  86   1.0000       0.091542         2.4910   18-A"
  87   1.0000       0.101162         2.7528   70-A'
  88   0.0000       0.173986         4.7344   19-A"
  89   0.0000       0.178134         4.8473   20-A"
  90   0.0000       0.178625         4.8606   71-A'
  91   0.0000       0.180751         4.9185   72-A'
  92   0.0000       0.192867         5.2482   73-A'

                 SPIN DOWN ORBITALS
  NO   OCC          E(Eh)            E(eV)    Irrep
   0   1.0000    -318.184769     -8658.2477    1-A'
   1   1.0000     -88.023147     -2395.2316    2-A'
   2   1.0000     -88.015838     -2395.0327    3-A'
   3   1.0000     -88.015318     -2395.0186    4-A'
   4   1.0000     -88.015112     -2395.0129    5-A'
   5   1.0000     -38.014326     -1034.4224    6-A'
   6   1.0000     -33.518226      -912.0773    7-A'
   7   1.0000     -33.517291      -912.0519    8-A'
   8   1.0000     -33.514383      -911.9727    1-A"
   9   1.0000      -9.835251      -267.6308    9-A'
  10   1.0000      -9.834541      -267.6115   10-A'
  11   1.0000      -9.833880      -267.5935   11-A'
  12   1.0000      -9.828958      -267.4595   12-A'
  13   1.0000      -9.828564      -267.4488   13-A'
  14   1.0000      -9.825435      -267.3637   14-A'
  15   1.0000      -9.824321      -267.3334   15-A'
  16   1.0000      -9.824152      -267.3288   16-A'
  17   1.0000      -9.824143      -267.3285   17-A'
  18   1.0000      -9.822433      -267.2820   18-A'
  19   1.0000      -9.798712      -266.6365   19-A'
  20   1.0000      -9.796452      -266.5750   20-A'
  21   1.0000      -7.591706      -206.5808   21-A'
  22   1.0000      -7.584457      -206.3836   22-A'
  23   1.0000      -7.584322      -206.3799   23-A'
  24   1.0000      -7.584208      -206.3768   24-A'
  25   1.0000      -5.514575      -150.0592   25-A'
  26   1.0000      -5.508197      -149.8857    2-A"
  27   1.0000      -5.507879      -149.8770   26-A'
  28   1.0000      -5.507452      -149.8654   27-A'
  29   1.0000      -5.507361      -149.8629   28-A'
  30   1.0000      -5.507240      -149.8596   29-A'
  31   1.0000      -5.500818      -149.6849   30-A'
  32   1.0000      -5.500804      -149.6845   31-A'
  33   1.0000      -5.500706      -149.6818   32-A'
  34   1.0000      -5.500595      -149.6788    3-A"
  35   1.0000      -5.500166      -149.6671    4-A"
  36   1.0000      -5.500054      -149.6641    5-A"
  37   1.0000      -3.994097      -108.6849   33-A'
  38   1.0000      -2.508526       -68.2605    6-A"
  39   1.0000      -2.507366       -68.2289   34-A'
  40   1.0000      -2.505525       -68.1788   35-A'
  41   1.0000      -0.597235       -16.2516   36-A'
  42   1.0000      -0.593118       -16.1396   37-A'
  43   1.0000      -0.525701       -14.3051   38-A'
  44   1.0000      -0.522689       -14.2231   39-A'
  45   1.0000      -0.481160       -13.0930   40-A'
  46   1.0000      -0.476526       -12.9669   41-A'
  47   1.0000      -0.420446       -11.4409   42-A'
  48   1.0000      -0.399955       -10.8833   43-A'
  49   1.0000      -0.389150       -10.5893   44-A'
  50   1.0000      -0.372786       -10.1440   45-A'
  51   1.0000      -0.337535        -9.1848   46-A'
  52   1.0000      -0.316389        -8.6094   47-A'
  53   1.0000      -0.297109        -8.0847   48-A'
  54   1.0000      -0.289592        -7.8802   49-A'
  55   1.0000      -0.242211        -6.5909   50-A'
  56   1.0000      -0.232597        -6.3293   51-A'
  57   1.0000      -0.196763        -5.3542   52-A'
  58   1.0000      -0.183533        -4.9942   53-A'
  59   1.0000      -0.178795        -4.8653   54-A'
  60   1.0000      -0.173471        -4.7204   55-A'
  61   1.0000      -0.155198        -4.2231   56-A'
  62   1.0000      -0.137883        -3.7520   57-A'
  63   1.0000      -0.124114        -3.3773    7-A"
  64   1.0000      -0.123262        -3.3541   58-A'
  65   1.0000      -0.120867        -3.2890    8-A"
  66   1.0000      -0.107403        -2.9226   59-A'
  67   1.0000      -0.090674        -2.4674   60-A'
  68   1.0000      -0.073484        -1.9996   61-A'
  69   1.0000      -0.056887        -1.5480    9-A"
  70   1.0000      -0.051904        -1.4124   10-A"
  71   1.0000      -0.037253        -1.0137   62-A'
  72   1.0000      -0.026905        -0.7321   63-A'
  73   1.0000      -0.020788        -0.5657   11-A"
  74   1.0000      -0.013526        -0.3681   12-A"
  75   1.0000      -0.005362        -0.1459   64-A'
  76   1.0000       0.002658         0.0723   65-A'
  77   1.0000       0.004765         0.1297   13-A"
  78   1.0000       0.011427         0.3110   66-A'
  79   1.0000       0.012624         0.3435   14-A"
  80   1.0000       0.028404         0.7729   67-A'
  81   1.0000       0.035483         0.9656   68-A'
  82   1.0000       0.040994         1.1155   69-A'
  83   1.0000       0.043819         1.1924   15-A"
  84   1.0000       0.058661         1.5963   16-A"
  85   1.0000       0.064462         1.7541   17-A"
  86   1.0000       0.094790         2.5794   18-A"
  87   0.0000       0.133991         3.6461   70-A'
  88   0.0000       0.174010         4.7350   19-A"
  89   0.0000       0.178619         4.8605   20-A"
  90   0.0000       0.180085         4.9004   71-A'
  91   0.0000       0.180952         4.9240   72-A'

MULLIKEN ATOMIC CHARGES AND SPIN POPULATIONS
--------------------------------------------
   0 Cu:    0.139611    0.374628
   1 S :   -0.426621    0.168315
   2 C :    0.064595   -0.008278
   3 S :   -0.399376    0.150107
   4 C :   -0.068028   -0.004196
   5 S :   -0.422611    0.171966
   6 C :    0.065742   -0.008847
   7 S :   -0.429122    0.159120
   8 C :   -0.069528   -0.003978
   9 C :    0.060521   -0.000299
  10 C :    0.023372   -0.000610
  11 C :   -0.113709   -0.001433
  12 H :    0.060260    0.001979
  13 C :   -0.172840   -0.002751
  14 H :    0.048554    0.001660
  15 H :   -0.024354    0.000450
  16 H :   -0.006742    0.000555
  17 C :   -0.153627   -0.003621
  18 C :   -0.156101   -0.003576
  19 C :   -0.098660   -0.000060
  20 H :    0.067777    0.002512
  21 C :   -0.095826    0.000004
  22 H :    0.068057    0.002799
  23 H :    0.018642    0.001751
  24 H :    0.020014    0.001805
Sum of atomic charges         :   -2.0000000

LOEWDIN ATOMIC CHARGES AND SPIN POPULATIONS
-------------------------------------------
   0 Cu:   -0.893653    0.440930
   1 S :    0.006645    0.126033
   2 C :   -0.049834    0.004462
   3 S :    0.039477    0.117815
   4 C :    0.001753    0.007402
   5 S :    0.009635    0.129389
   6 C :   -0.047940    0.004606
   7 S :    0.020069    0.123521
   8 C :   -0.029604    0.007289
   9 C :    0.186310    0.003626
  10 C :    0.178560    0.003460
  11 C :    0.334862   -0.000690
  12 H :   -0.465742    0.005820
  13 C :    0.366995   -0.001308
  14 H :   -0.455828    0.005503
  15 H :   -0.362614    0.000026
  16 H :   -0.388911   -0.000250
  17 C :    0.362888    0.003355
  18 C :    0.362060    0.003537
  19 C :    0.267241    0.000447
  20 H :   -0.448291    0.006518
  21 C :    0.264576    0.000495
  22 H :   -0.448272    0.006734
  23 H :   -0.404735    0.000622
  24 H :   -0.405649    0.000656

  Mayer bond orders larger than 0.100000
B(  0-Cu,  1-S ) :   0.7062 B(  0-Cu,  3-S ) :   0.6866 B(  0-Cu,  5-S ) :   0.7097
B(  0-Cu,  7-S ) :   0.7049 B(  1-S ,  2-C ) :   1.1634 B(  2-C ,  6-C ) :   1.2606
B(  2-C , 17-C ) :   1.3313 B(  3-S ,  4-C ) :   1.2515 B(  4-C ,  8-C ) :   1.2000
B(  4-C , 10-C ) :   1.2347 B(  5-S ,  6-C ) :   1.1659 B(  6-C , 18-C ) :   1.3278
B(  7-S ,  8-C ) :   1.2008 B(  8-C ,  9-C ) :   1.3120 B(  9-C , 13-C ) :   1.3966
B(  9-C , 14-H ) :   0.9570 B( 10-C , 11-C ) :   1.4786 B( 10-C , 12-H ) :   0.9539
B( 11-C , 13-C ) :   1.1181 B( 11-C , 15-H ) :   0.9711 B( 13-C , 16-H ) :   0.9857
B( 17-C , 18-C ) :   0.1027 B( 17-C , 19-C ) :   1.2840 B( 17-C , 20-H ) :   0.9682
B( 18-C , 21-C ) :   1.2870 B( 18-C , 22-H ) :   0.9683 B( 19-C , 21-C ) :   1.4463
B( 19-C , 23-H ) :   0.9818 B( 21-C , 24-H ) :   0.9820

FINAL SINGLE POINT ENERGY     -3686.699982706728

DIPOLE MOMENT
-------------
                                X             Y             Z
Electronic contribution:      0.63488       1.11032      -0.00000
Nuclear contribution   :     -0.35190      -0.57672       0.00000
                        -----------------------------------------
Total Dipole Moment    :      0.28298       0.53360      -0.00000
                        -----------------------------------------
Magnitude (a.u.)       :      0.60399
Magnitude (Debye)      :      1.53522

Rotational constants in cm-1:     0.033257     0.004805     0.004198
Rotational constants in MHz :   997.025438   144.046019   125.862008

                             ****ORCA TERMINATED NORMALLY****
TOTAL RUN TIME: 0 days 7 hours 12 minutes 44 seconds 218 msec
