                         Program Version 5.0.4 -  RELEASE  -
|  1> ! RIJCOSX nofrozencore ReducedPop printbasis
|  2> ! M06L ano-rcc-dzp autoaux
|  3>
|  4> %maxcore 5000
|  5> %basis
|  6> PCDTrimBas overlap
|  7> PCDTrimAuxJ Coulomb
|  8> PCDTrimAuxJK Coulomb
|  9> PCDTrimAuxC Coulomb
| 10> PCDThresh -1
| 11> end
| 12>
| 13> %basis
| 14> newgto Cu "ano-rcc-tzp" end
| 15> newgto S "ano-rcc-tzp" end
| 16> end
| 17>
| 18> %pal
| 19> nprocs 4
| 20> end
| 21>
| 22> % sym SymThresh 1e-2 end
| 23> * xyz -2 2
| 24> Cu -6.08641775821208e-07 1.3074794437812137e-07 7.825983412748215e-07
| 25> S 1.4859754073201068 -1.1471571413328896 1.3594727879346444
| 26> C 2.6072153176287274 0.07180320571842648 1.9088464165269268
| 27> S -1.1104469944707307 -1.9585569767468873 -0.5506862323665017
| 28> C -2.4505459889736203 -1.4381336841675614 -1.5412627089775897
| 29> S 1.1230361409618166 1.9558525862653704 0.5344989682755734
| 30> C 2.340448169503546 1.461784810574064 1.6828277055291332
| 31> S -1.4985657710947444 1.1498617933102955 -1.3432839586470335
| 32> C -2.4971034993978094 -0.09545733932764994 -2.05042941284032
| 33> C -3.570273757979278 0.25064259677627204 -2.8851936497186417
| 34> C -3.314324242089998 -2.3846059417243723 -2.112562447586433
| 35> C -4.249047650636869 -2.0443862959578043 -3.0950073290159157
| 36> H -3.165747438924368 -3.4281920766984473 -1.8533543959523193
| 37> C -4.536228955883593 -0.6787176088382859 -3.282523587881751
| 38> H -3.7025595845735917 1.2993118571386326 -3.1324469600489944
| 39> H -4.841008846907319 -2.8209219103847323 -3.587156185049994
| 40> H -5.41051668881066 -0.35667952126025415 -3.854831031800081
| 41> C 3.6290653340225445 -0.2632725685113277 2.8095972105345077
| 42> C 3.255529014196076 2.397236697947094 2.1881635823606147
| 43> C 4.419756831095343 0.7037380584662607 3.432284736861466
| 44> H 3.73406836066608 -1.3060805474711437 3.0919326265195384
| 45> C 4.365520384066894 2.019365715581885 2.9452453974378594
| 46> H 3.1341584984096547 3.4349783998074668 1.8939733848715166
| 47> H 5.150971257684691 0.412433929074796 4.188557823574257
| 48> H 5.100570334528602 2.7651621809268407 3.2534095471409223
| 49> *
| 50>
| 51> % eprnmr
| 52> gtensor true
| 53> Nuclei = all H {aiso,adip,aorb,fgrad,rho}
| 54> Nuclei = all Cu {aiso,adip,aorb,fgrad,rho}
| 55> end
| 56>
| 57>                          ****END OF INPUT****

CARTESIAN COORDINATES (ANGSTROEM)
---------------------------------
  Cu     0.000000    0.000000   -0.000000
  S     -1.573630    0.365969    1.661931
  C     -0.712643    0.075595    3.151642
  S     -1.578197    0.345795   -1.661931
  C     -0.672702    0.252034   -3.151642
  S      1.573630   -0.365969    1.661931
  C      0.712643   -0.075595    3.151642
  S      1.578197   -0.345795   -1.661931
  C      0.672702   -0.252034   -3.151642
  C      1.332530   -0.355128   -4.385461
  C     -1.332530    0.355128   -4.385461
  C     -0.702041    0.053008   -5.596188
  H     -2.396261    0.571242   -4.375043
  C      0.702041   -0.053008   -5.596188
  H      2.396261   -0.571242   -4.375043
  H     -1.270591    0.052144   -6.530201
  H      1.270591   -0.052144   -6.530201
  C     -1.353857    0.260912    4.385460
  C      1.353857   -0.260912    4.385460
  C     -0.659791    0.239650    5.596188
  H     -2.407705    0.520686    4.375043
  C      0.659791   -0.239650    5.596188
  H      2.407705   -0.520686    4.375043
  H     -1.176438    0.468067    6.530201
  H      1.176438   -0.468067    6.530201

 Total Charge           Charge          ....   -2
 Multiplicity           Mult            ....    2
 Number of Electrons    NEL             ....  175
 Basis Dimension        Dim             ....  475

ORBITAL ENERGIES
----------------
                 SPIN UP ORBITALS
  NO   OCC          E(Eh)            E(eV)    Irrep
   0   1.0000    -318.181040     -8658.1463    1-A
   1   1.0000     -88.014706     -2395.0019    1-B
   2   1.0000     -88.014701     -2395.0018    2-A
   3   1.0000     -88.014545     -2394.9975    2-B
   4   1.0000     -88.014532     -2394.9972    3-A
   5   1.0000     -38.026238     -1034.7465    4-A
   6   1.0000     -33.529356      -912.3802    3-B
   7   1.0000     -33.528502      -912.3569    5-A
   8   1.0000     -33.514814      -911.9844    4-B
   9   1.0000      -9.833435      -267.5814    6-A
  10   1.0000      -9.833142      -267.5734    5-B
  11   1.0000      -9.833119      -267.5728    7-A
  12   1.0000      -9.832817      -267.5645    6-B
  13   1.0000      -9.827373      -267.4164    8-A
  14   1.0000      -9.826996      -267.4062    7-B
  15   1.0000      -9.826362      -267.3889    9-A
  16   1.0000      -9.825972      -267.3783    8-B
  17   1.0000      -9.818019      -267.1619    9-B
  18   1.0000      -9.818016      -267.1618   10-A
  19   1.0000      -9.817520      -267.1483   10-B
  20   1.0000      -9.817516      -267.1482   11-A
  21   1.0000      -7.583289      -206.3518   11-B
  22   1.0000      -7.583281      -206.3516   12-A
  23   1.0000      -7.583161      -206.3483   12-B
  24   1.0000      -7.583153      -206.3481   13-A
  25   1.0000      -5.506549      -149.8408   13-B
  26   1.0000      -5.506548      -149.8408   14-A
  27   1.0000      -5.506405      -149.8369   14-B
  28   1.0000      -5.506404      -149.8369   15-A
  29   1.0000      -5.501219      -149.6958   15-B
  30   1.0000      -5.501219      -149.6958   16-A
  31   1.0000      -5.501085      -149.6921   16-B
  32   1.0000      -5.501085      -149.6921   17-A
  33   1.0000      -5.499302      -149.6436   18-A
  34   1.0000      -5.499302      -149.6436   17-B
  35   1.0000      -5.499188      -149.6405   19-A
  36   1.0000      -5.499188      -149.6405   18-B
  37   1.0000      -4.023843      -109.4943   20-A
  38   1.0000      -2.545245       -69.2596   19-B
  39   1.0000      -2.543697       -69.2175   21-A
  40   1.0000      -2.516416       -68.4752   20-B
  41   1.0000      -0.587926       -15.9983   22-A
  42   1.0000      -0.587430       -15.9848   23-A
  43   1.0000      -0.502492       -13.6735   24-A
  44   1.0000      -0.501204       -13.6385   25-A
  45   1.0000      -0.489276       -13.3139   21-B
  46   1.0000      -0.488965       -13.3054   22-B
  47   1.0000      -0.408626       -11.1193   23-B
  48   1.0000      -0.405999       -11.0478   24-B
  49   1.0000      -0.386450       -10.5158   26-A
  50   1.0000      -0.379738       -10.3332   27-A
  51   1.0000      -0.319402        -8.6914   28-A
  52   1.0000      -0.316668        -8.6170   29-A
  53   1.0000      -0.300381        -8.1738   25-B
  54   1.0000      -0.296939        -8.0801   26-B
  55   1.0000      -0.231419        -6.2972   30-A
  56   1.0000      -0.226063        -6.1515   31-A
  57   1.0000      -0.187098        -5.0912   32-A
  58   1.0000      -0.185871        -5.0578   33-A
  59   1.0000      -0.178960        -4.8698   27-B
  60   1.0000      -0.175806        -4.7839   28-B
  61   1.0000      -0.148433        -4.0391   29-B
  62   1.0000      -0.145958        -3.9717   30-B
  63   1.0000      -0.130528        -3.5518   34-A
  64   1.0000      -0.114662        -3.1201   31-B
  65   1.0000      -0.113982        -3.1016   32-B
  66   1.0000      -0.113359        -3.0847   35-A
  67   1.0000      -0.085308        -2.3213   36-A
  68   1.0000      -0.071624        -1.9490   33-B
  69   1.0000      -0.066636        -1.8132   34-B
  70   1.0000      -0.060646        -1.6503   37-A
  71   1.0000      -0.035607        -0.9689   35-B
  72   1.0000      -0.033754        -0.9185   36-B
  73   1.0000      -0.031059        -0.8452   37-B
  74   1.0000      -0.030048        -0.8176   38-A
  75   1.0000      -0.025667        -0.6984   39-A
  76   1.0000      -0.017602        -0.4790   40-A
  77   1.0000      -0.002635        -0.0717   41-A
  78   1.0000       0.000098         0.0027   42-A
  79   1.0000       0.002523         0.0687   38-B
  80   1.0000       0.018983         0.5165   43-A
  81   1.0000       0.020140         0.5480   44-A
  82   1.0000       0.035076         0.9545   39-B
  83   1.0000       0.050839         1.3834   45-A
  84   1.0000       0.053000         1.4422   46-A
  85   1.0000       0.063812         1.7364   40-B
  86   1.0000       0.088396         2.4054   41-B
  87   1.0000       0.105578         2.8729   42-B
  88   0.0000       0.180745         4.9183   47-A
  89   0.0000       0.181007         4.9254   48-A
  90   0.0000       0.195959         5.3323   43-B
  91   0.0000       0.196439         5.3454   44-B
  92   0.0000       0.198133         5.3915   49-A

                 SPIN DOWN ORBITALS
  NO   OCC          E(Eh)            E(eV)    Irrep
   0   1.0000    -318.180866     -8658.1415    1-A
   1   1.0000     -88.013637     -2394.9728    1-B
   2   1.0000     -88.013632     -2394.9727    2-A
   3   1.0000     -88.013477     -2394.9685    2-B
   4   1.0000     -88.013464     -2394.9681    3-A
   5   1.0000     -38.010398     -1034.3155    4-A
   6   1.0000     -33.514225      -911.9684    3-B
   7   1.0000     -33.513405      -911.9461    5-A
   8   1.0000     -33.510492      -911.8669    4-B
   9   1.0000      -9.833545      -267.5844    6-A
  10   1.0000      -9.833252      -267.5764    5-B
  11   1.0000      -9.833231      -267.5758    7-A
  12   1.0000      -9.832928      -267.5676    6-B
  13   1.0000      -9.827352      -267.4158    8-A
  14   1.0000      -9.826975      -267.4056    7-B
  15   1.0000      -9.826341      -267.3883    9-A
  16   1.0000      -9.825951      -267.3777    8-B
  17   1.0000      -9.817959      -267.1603    9-B
  18   1.0000      -9.817956      -267.1602   10-A
  19   1.0000      -9.817461      -267.1467   10-B
  20   1.0000      -9.817457      -267.1466   11-A
  21   1.0000      -7.582557      -206.3319   11-B
  22   1.0000      -7.582550      -206.3317   12-A
  23   1.0000      -7.582431      -206.3284   12-B
  24   1.0000      -7.582423      -206.3282   13-A
  25   1.0000      -5.505625      -149.8157   13-B
  26   1.0000      -5.505625      -149.8157   14-A
  27   1.0000      -5.505480      -149.8117   14-B
  28   1.0000      -5.505479      -149.8117   15-A
  29   1.0000      -5.498987      -149.6350   15-B
  30   1.0000      -5.498987      -149.6350   16-A
  31   1.0000      -5.498858      -149.6315   16-B
  32   1.0000      -5.498858      -149.6315   17-A
  33   1.0000      -5.498473      -149.6211   18-A
  34   1.0000      -5.498473      -149.6211   17-B
  35   1.0000      -5.498359      -149.6180   19-A
  36   1.0000      -5.498359      -149.6180   18-B
  37   1.0000      -3.990196      -108.5787   20-A
  38   1.0000      -2.504713       -68.1567   19-B
  39   1.0000      -2.503307       -68.1184   20-B
  40   1.0000      -2.501714       -68.0751   21-A
  41   1.0000      -0.587552       -15.9881   22-A
  42   1.0000      -0.587053       -15.9745   23-A
  43   1.0000      -0.501145       -13.6369   24-A
  44   1.0000      -0.499916       -13.6034   25-A
  45   1.0000      -0.488222       -13.2852   21-B
  46   1.0000      -0.487927       -13.2772   22-B
  47   1.0000      -0.404669       -11.0116   23-B
  48   1.0000      -0.401948       -10.9376   24-B
  49   1.0000      -0.383233       -10.4283   26-A
  50   1.0000      -0.376574       -10.2471   27-A
  51   1.0000      -0.318217        -8.6591   28-A
  52   1.0000      -0.315188        -8.5767   29-A
  53   1.0000      -0.298596        -8.1252   25-B
  54   1.0000      -0.294731        -8.0200   26-B
  55   1.0000      -0.230838        -6.2814   30-A
  56   1.0000      -0.225353        -6.1322   31-A
  57   1.0000      -0.186129        -5.0648   32-A
  58   1.0000      -0.184960        -5.0330   33-A
  59   1.0000      -0.178413        -4.8549   27-B
  60   1.0000      -0.174893        -4.7591   28-B
  61   1.0000      -0.147815        -4.0222   29-B
  62   1.0000      -0.144664        -3.9365   30-B
  63   1.0000      -0.129287        -3.5181   34-A
  64   1.0000      -0.114430        -3.1138   31-B
  65   1.0000      -0.113733        -3.0948   32-B
  66   1.0000      -0.112464        -3.0603   35-A
  67   1.0000      -0.083838        -2.2813   36-A
  68   1.0000      -0.070116        -1.9080   33-B
  69   1.0000      -0.058942        -1.6039   37-A
  70   1.0000      -0.052479        -1.4280   34-B
  71   1.0000      -0.033504        -0.9117   35-B
  72   1.0000      -0.032340        -0.8800   36-B
  73   1.0000      -0.024341        -0.6624   38-A
  74   1.0000      -0.022425        -0.6102   39-A
  75   1.0000      -0.015395        -0.4189   40-A
  76   1.0000      -0.002201        -0.0599   37-B
  77   1.0000       0.007156         0.1947   41-A
  78   1.0000       0.010825         0.2946   42-A
  79   1.0000       0.014602         0.3973   38-B
  80   1.0000       0.026783         0.7288   43-A
  81   1.0000       0.034469         0.9379   44-A
  82   1.0000       0.043359         1.1799   39-B
  83   1.0000       0.053692         1.4610   45-A
  84   1.0000       0.058551         1.5932   46-A
  85   1.0000       0.065825         1.7912   40-B
  86   1.0000       0.092505         2.5172   41-B
  87   0.0000       0.138416         3.7665   42-B
  88   0.0000       0.181798         4.9470   47-A
  89   0.0000       0.182082         4.9547   48-A
  90   0.0000       0.197370         5.3707   43-B
  91   0.0000       0.198170         5.3925   44-B

MULLIKEN ATOMIC CHARGES AND SPIN POPULATIONS
--------------------------------------------
   0 Cu:    0.141776    0.374666
   1 S :   -0.419150    0.162714
   2 C :    0.014872   -0.007028
   3 S :   -0.416957    0.163043
   4 C :    0.011701   -0.006927
   5 S :   -0.419150    0.162714
   6 C :    0.014872   -0.007028
   7 S :   -0.416957    0.163043
   8 C :    0.011701   -0.006927
   9 C :   -0.081271   -0.001696
  10 C :   -0.081271   -0.001696
  11 C :   -0.145143   -0.001026
  12 H :    0.068511    0.001978
  13 C :   -0.145143   -0.001026
  14 H :    0.068511    0.001978
  15 H :    0.027746    0.001144
  16 H :    0.027746    0.001144
  17 C :   -0.083417   -0.001672
  18 C :   -0.083417   -0.001672
  19 C :   -0.144055   -0.000990
  20 H :    0.067442    0.001997
  21 C :   -0.144055   -0.000990
  22 H :    0.067442    0.001997
  23 H :    0.028833    0.001129
  24 H :    0.028833    0.001129
Sum of atomic charges         :   -2.0000000

LOEWDIN ATOMIC CHARGES AND SPIN POPULATIONS
-------------------------------------------
   0 Cu:   -0.895444    0.441427
   1 S :    0.006534    0.124089
   2 C :   -0.035473    0.005260
   3 S :    0.005802    0.124365
   4 C :   -0.034510    0.005324
   5 S :    0.006534    0.124089
   6 C :   -0.035473    0.005260
   7 S :    0.005802    0.124365
   8 C :   -0.034510    0.005324
   9 C :    0.304559    0.003896
  10 C :    0.304559    0.003896
  11 C :    0.313275   -0.000241
  12 H :   -0.450570    0.006243
  13 C :    0.313275   -0.000241
  14 H :   -0.450570    0.006243
  15 H :   -0.414555    0.000213
  16 H :   -0.414555    0.000213
  17 C :    0.305053    0.003890
  18 C :    0.305053    0.003890
  19 C :    0.312788   -0.000213
  20 H :   -0.449698    0.006250
  21 C :    0.312788   -0.000213
  22 H :   -0.449698    0.006250
  23 H :   -0.415484    0.000209
  24 H :   -0.415484    0.000209

  Mayer bond orders larger than 0.100000
B(  0-Cu,  1-S ) :   0.7010 B(  0-Cu,  3-S ) :   0.7008 B(  0-Cu,  5-S ) :   0.7010
B(  0-Cu,  7-S ) :   0.7008 B(  1-S ,  2-C ) :   1.1846 B(  2-C ,  6-C ) :   1.2458
B(  2-C , 17-C ) :   1.3182 B(  3-S ,  4-C ) :   1.1842 B(  4-C ,  8-C ) :   1.2467
B(  4-C , 10-C ) :   1.3184 B(  5-S ,  6-C ) :   1.1846 B(  6-C , 18-C ) :   1.3182
B(  7-S ,  8-C ) :   1.1842 B(  8-C ,  9-C ) :   1.3184 B(  9-C , 13-C ) :   1.3678
B(  9-C , 14-H ) :   0.9668 B( 10-C , 11-C ) :   1.3678 B( 10-C , 12-H ) :   0.9668
B( 11-C , 13-C ) :   1.3305 B( 11-C , 15-H ) :   0.9905 B( 13-C , 16-H ) :   0.9905
B( 17-C , 19-C ) :   1.3666 B( 17-C , 20-H ) :   0.9675 B( 18-C , 21-C ) :   1.3666
B( 18-C , 22-H ) :   0.9675 B( 19-C , 21-C ) :   1.3329 B( 19-C , 23-H ) :   0.9902
B( 21-C , 24-H ) :   0.9902

FINAL SINGLE POINT ENERGY     -3686.905195700169

DIPOLE MOMENT
-------------
                                X             Y             Z
Electronic contribution:      0.00000      -0.00000      -0.00050
Nuclear contribution   :      0.00000       0.00000       0.00000
                        -----------------------------------------
Total Dipole Moment    :      0.00000      -0.00000      -0.00050
                        -----------------------------------------
Magnitude (a.u.)       :      0.00050
Magnitude (Debye)      :      0.00127

Rotational constants in cm-1:     0.033347     0.004802     0.004200
Rotational constants in MHz :   999.709025   143.971044   125.919615

                             ****ORCA TERMINATED NORMALLY****
TOTAL RUN TIME: 0 days 5 hours 37 minutes 15 seconds 433 msec
