                         Program Version 5.0.4 -  RELEASE  -
|  1> ! RIJCOSX nofrozencore ReducedPop printbasis
|  2> ! M06L ano-rcc-dzp autoaux
|  3>
|  4> %maxcore 5000
|  5> %basis
|  6> PCDTrimBas overlap
|  7> PCDTrimAuxJ Coulomb
|  8> PCDTrimAuxJK Coulomb
|  9> PCDTrimAuxC Coulomb
| 10> PCDThresh -1
| 11> end
| 12>
| 13> %basis
| 14> newgto Cu "ano-rcc-tzp" end
| 15> newgto S "ano-rcc-tzp" end
| 16> end
| 17>
| 18> %pal
| 19> nprocs 12
| 20> end
| 21>
| 22> % sym SymThresh 1e-2 end
| 23> * xyz -2 2
| 24> Cu 7.945344694349063e-07 5.358278375960852e-07 -2.856632726426261e-07
| 25> S -1.2557198127245481 1.175161091611005 -1.555687031468623
| 26> C -1.2199440125231942 0.1768280767518664 -2.986695331344
| 27> S -0.521389856894616 1.5209765997382414 1.6711752432827351
| 28> C 0.4372147815488311 1.011064103560843 3.037511608482331
| 29> S 0.3997911235544202 -1.6029818353152967 -1.6274561933844172
| 30> C -0.4032166516017115 -0.9881360303901066 -3.049735139918709
| 31> S 1.3773201351336828 -1.0931547843782743 1.5119674102437597
| 32> C 1.1859427044381967 -0.19975829323395328 2.998920005433469
| 33> C 1.7888914728323115 -0.6517043801257403 4.185895433553706
| 34> C 0.469707512364358 1.7806241878471512 4.213705199608554
| 35> C 1.1221448293900078 1.3446168924348816 5.361119384895474
| 36> H -0.049407374587598016 2.7390084707967 4.213604754910371
| 37> C 1.7600318664308265 0.0959919940724536 5.357413130627132
| 38> H 2.3026519755778185 -1.6127630186257125 4.166037985473349
| 39> H 1.1183284911248583 1.9681994061667674 6.253637541809422
| 40> H 2.2448943993808417 -0.2871451816642805 6.253833691169323
| 41> C -1.9849020743960257 0.5195163171312912 -4.115421632191737
| 42> C -0.27370882881768516 -1.6484441622702661 -4.284174716021434
| 43> C -1.8878208178223899 -0.18217186433221996 -5.311468478171656
| 44> H -2.6589784381542296 1.3724592366433208 -4.037926006264766
| 45> C -0.9943503162571588 -1.2584332713802522 -5.40706603699386
| 46> H 0.40573357965260193 -2.498704817526976 -4.341717691783261
| 47> H -2.493399111694265 0.11955675084171903 -6.164487610659577
| 48> H -0.8698185223590319 -1.8006050198037986 -6.342985836195089
| 49> *
| 50>
| 51> % eprnmr
| 52> gtensor true
| 53> Nuclei = all H {aiso,adip,aorb,fgrad,rho}
| 54> Nuclei = all Cu {aiso,adip,aorb,fgrad,rho}
| 55> end
| 56>
| 57>                          ****END OF INPUT****

CARTESIAN COORDINATES (ANGSTROEM)
---------------------------------
  Cu     0.000000    0.000000    0.000000
  S      0.076522    1.615597   -1.661930
  C     -0.021396    0.711747   -3.151641
  S     -0.076522    1.615597    1.661930
  C      0.021396    0.711747    3.151641
  S     -0.076522   -1.615597   -1.661930
  C      0.021396   -0.711747   -3.151641
  S      0.076522   -1.615597    1.661930
  C     -0.021396   -0.711747    3.151641
  C     -0.123346   -1.378053    4.385459
  C      0.123346    1.378053    4.385459
  C      0.080419    0.696420    5.596187
  H      0.224236    2.463249    4.375042
  C     -0.080419   -0.696420    5.596187
  H     -0.224236   -2.463249    4.375042
  H      0.156385    1.250749    6.530200
  H     -0.156385   -1.250749    6.530200
  C     -0.123346    1.378053   -4.385459
  C      0.123346   -1.378053   -4.385459
  C     -0.080419    0.696420   -5.596187
  H     -0.224236    2.463249   -4.375042
  C      0.080419   -0.696420   -5.596187
  H      0.224236   -2.463249   -4.375042
  H     -0.156385    1.250749   -6.530200
  H      0.156385   -1.250749   -6.530200

 Total Charge           Charge          ....   -2
 Multiplicity           Mult            ....    2
 Number of Electrons    NEL             ....  175
 Basis Dimension        Dim             ....  475

ORBITAL ENERGIES
----------------
                 SPIN UP ORBITALS
  NO   OCC          E(Eh)            E(eV)    Irrep
   0   1.0000    -318.181054     -8658.1467    1-A
   1   1.0000     -88.014781     -2395.0040    1-B1
   2   1.0000     -88.014769     -2395.0036    1-B2
   3   1.0000     -88.014766     -2395.0035    1-B3
   4   1.0000     -88.014732     -2395.0026    2-A
   5   1.0000     -38.026172     -1034.7448    3-A
   6   1.0000     -33.529294      -912.3785    2-B3
   7   1.0000     -33.528470      -912.3561    2-B1
   8   1.0000     -33.514767      -911.9832    2-B2
   9   1.0000      -9.833424      -267.5811    3-B1
  10   1.0000      -9.833419      -267.5809    4-A
  11   1.0000      -9.833094      -267.5721    3-B2
  12   1.0000      -9.833092      -267.5720    3-B3
  13   1.0000      -9.825251      -267.3587    4-B1
  14   1.0000      -9.825250      -267.3587    5-A
  15   1.0000      -9.824855      -267.3479    4-B2
  16   1.0000      -9.824855      -267.3479    4-B3
  17   1.0000      -9.817893      -267.1584    5-B2
  18   1.0000      -9.817892      -267.1584    5-B3
  19   1.0000      -9.817889      -267.1583    5-B1
  20   1.0000      -9.817888      -267.1583    6-A
  21   1.0000      -7.583381      -206.3543    6-B2
  22   1.0000      -7.583381      -206.3543    6-B3
  23   1.0000      -7.583377      -206.3542    6-B1
  24   1.0000      -7.583366      -206.3539    7-A
  25   1.0000      -5.506607      -149.8424    7-B2
  26   1.0000      -5.506607      -149.8424    7-B3
  27   1.0000      -5.506606      -149.8424    7-B1
  28   1.0000      -5.506606      -149.8424    8-A
  29   1.0000      -5.501314      -149.6984    8-B2
  30   1.0000      -5.501313      -149.6984    8-B3
  31   1.0000      -5.501313      -149.6983    8-B1
  32   1.0000      -5.501313      -149.6983    9-A
  33   1.0000      -5.499417      -149.6468   10-A
  34   1.0000      -5.499417      -149.6468    9-B1
  35   1.0000      -5.499417      -149.6467    9-B3
  36   1.0000      -5.499417      -149.6467    9-B2
  37   1.0000      -4.023827      -109.4939   11-A
  38   1.0000      -2.545201       -69.2584   10-B3
  39   1.0000      -2.543712       -69.2179   10-B1
  40   1.0000      -2.516424       -68.4754   10-B2
  41   1.0000      -0.588327       -16.0092   12-A
  42   1.0000      -0.588207       -16.0059   11-B1
  43   1.0000      -0.503394       -13.6980   13-A
  44   1.0000      -0.502286       -13.6679   12-B1
  45   1.0000      -0.489559       -13.3216   11-B3
  46   1.0000      -0.489316       -13.3150   11-B2
  47   1.0000      -0.409729       -11.1493   12-B3
  48   1.0000      -0.407131       -11.0786   12-B2
  49   1.0000      -0.386944       -10.5293   14-A
  50   1.0000      -0.380319       -10.3490   13-B1
  51   1.0000      -0.321432        -8.7466   15-A
  52   1.0000      -0.318790        -8.6747   14-B1
  53   1.0000      -0.300161        -8.1678   13-B3
  54   1.0000      -0.296728        -8.0744   13-B2
  55   1.0000      -0.231914        -6.3107   16-A
  56   1.0000      -0.226739        -6.1699   15-B1
  57   1.0000      -0.189288        -5.1508   17-A
  58   1.0000      -0.188385        -5.1262   16-B1
  59   1.0000      -0.177781        -4.8377   14-B3
  60   1.0000      -0.174865        -4.7583   14-B2
  61   1.0000      -0.147083        -4.0023   15-B3
  62   1.0000      -0.144134        -3.9221   15-B2
  63   1.0000      -0.130317        -3.5461   18-A
  64   1.0000      -0.116597        -3.1728   16-B3
  65   1.0000      -0.116482        -3.1696   16-B2
  66   1.0000      -0.113372        -3.0850   17-B1
  67   1.0000      -0.087281        -2.3751   19-A
  68   1.0000      -0.069368        -1.8876   17-B3
  69   1.0000      -0.065058        -1.7703   17-B2
  70   1.0000      -0.062854        -1.7103   18-B1
  71   1.0000      -0.037740        -1.0270   18-B3
  72   1.0000      -0.036062        -0.9813   18-B2
  73   1.0000      -0.031627        -0.8606   19-B2
  74   1.0000      -0.029667        -0.8073   20-A
  75   1.0000      -0.025840        -0.7031   19-B1
  76   1.0000      -0.018286        -0.4976   21-A
  77   1.0000      -0.002770        -0.0754   20-B1
  78   1.0000      -0.000578        -0.0157   22-A
  79   1.0000       0.001684         0.0458   19-B3
  80   1.0000       0.018451         0.5021   23-A
  81   1.0000       0.019197         0.5224   21-B1
  82   1.0000       0.034928         0.9504   20-B3
  83   1.0000       0.049733         1.3533   24-A
  84   1.0000       0.052181         1.4199   22-B1
  85   1.0000       0.062600         1.7034   20-B2
  86   1.0000       0.087180         2.3723   21-B3
  87   1.0000       0.105454         2.8696   21-B2
  88   0.0000       0.181517         4.9393   25-A
  89   0.0000       0.181579         4.9410   23-B1
  90   0.0000       0.196592         5.3495   22-B2
  91   0.0000       0.196855         5.3567   22-B3
  92   0.0000       0.200711         5.4616   23-B2

                 SPIN DOWN ORBITALS
  NO   OCC          E(Eh)            E(eV)    Irrep
   0   1.0000    -318.180880     -8658.1419    1-A
   1   1.0000     -88.013713     -2394.9749    1-B1
   2   1.0000     -88.013701     -2394.9745    1-B2
   3   1.0000     -88.013697     -2394.9745    1-B3
   4   1.0000     -88.013664     -2394.9736    2-A
   5   1.0000     -38.010361     -1034.3145    3-A
   6   1.0000     -33.514189      -911.9675    2-B3
   7   1.0000     -33.513397      -911.9459    2-B1
   8   1.0000     -33.510456      -911.8659    2-B2
   9   1.0000      -9.833532      -267.5840    3-B1
  10   1.0000      -9.833527      -267.5839    4-A
  11   1.0000      -9.833202      -267.5750    3-B2
  12   1.0000      -9.833199      -267.5750    3-B3
  13   1.0000      -9.825230      -267.3581    4-B1
  14   1.0000      -9.825230      -267.3581    5-A
  15   1.0000      -9.824834      -267.3473    4-B2
  16   1.0000      -9.824834      -267.3473    4-B3
  17   1.0000      -9.817834      -267.1568    5-B2
  18   1.0000      -9.817833      -267.1568    5-B3
  19   1.0000      -9.817829      -267.1567    5-B1
  20   1.0000      -9.817829      -267.1567    6-A
  21   1.0000      -7.582649      -206.3344    6-B3
  22   1.0000      -7.582649      -206.3344    6-B2
  23   1.0000      -7.582647      -206.3343    6-B1
  24   1.0000      -7.582634      -206.3340    7-A
  25   1.0000      -5.505682      -149.8172    7-B2
  26   1.0000      -5.505681      -149.8172    7-B3
  27   1.0000      -5.505681      -149.8172    7-B1
  28   1.0000      -5.505681      -149.8172    8-A
  29   1.0000      -5.499084      -149.6377    8-B2
  30   1.0000      -5.499084      -149.6377    8-B3
  31   1.0000      -5.499084      -149.6377    8-B1
  32   1.0000      -5.499084      -149.6377    9-A
  33   1.0000      -5.498589      -149.6242   10-A
  34   1.0000      -5.498589      -149.6242    9-B1
  35   1.0000      -5.498589      -149.6242    9-B3
  36   1.0000      -5.498588      -149.6242    9-B2
  37   1.0000      -3.990235      -108.5798   11-A
  38   1.0000      -2.504757       -68.1579   10-B2
  39   1.0000      -2.503315       -68.1187   10-B3
  40   1.0000      -2.501801       -68.0775   10-B1
  41   1.0000      -0.587944       -15.9988   12-A
  42   1.0000      -0.587835       -15.9958   11-B1
  43   1.0000      -0.502067       -13.6619   13-A
  44   1.0000      -0.501031       -13.6337   12-B1
  45   1.0000      -0.488543       -13.2939   11-B3
  46   1.0000      -0.488324       -13.2880   11-B2
  47   1.0000      -0.405748       -11.0410   12-B3
  48   1.0000      -0.403058       -10.9678   12-B2
  49   1.0000      -0.383733       -10.4419   14-A
  50   1.0000      -0.377173       -10.2634   13-B1
  51   1.0000      -0.320237        -8.7141   15-A
  52   1.0000      -0.317281        -8.6337   14-B1
  53   1.0000      -0.298372        -8.1191   13-B3
  54   1.0000      -0.294522        -8.0143   13-B2
  55   1.0000      -0.231340        -6.2951   16-A
  56   1.0000      -0.226036        -6.1508   15-B1
  57   1.0000      -0.188327        -5.1246   17-A
  58   1.0000      -0.187511        -5.1024   16-B1
  59   1.0000      -0.177254        -4.8233   14-B3
  60   1.0000      -0.174013        -4.7351   14-B2
  61   1.0000      -0.146408        -3.9840   15-B3
  62   1.0000      -0.142665        -3.8821   15-B2
  63   1.0000      -0.129053        -3.5117   18-A
  64   1.0000      -0.116331        -3.1655   16-B3
  65   1.0000      -0.116136        -3.1602   16-B2
  66   1.0000      -0.112482        -3.0608   17-B1
  67   1.0000      -0.085855        -2.3362   19-A
  68   1.0000      -0.067916        -1.8481   17-B3
  69   1.0000      -0.061127        -1.6634   18-B1
  70   1.0000      -0.051170        -1.3924   17-B2
  71   1.0000      -0.035595        -0.9686   18-B3
  72   1.0000      -0.035024        -0.9530   18-B2
  73   1.0000      -0.023397        -0.6367   20-A
  74   1.0000      -0.022738        -0.6187   19-B1
  75   1.0000      -0.016911        -0.4602   21-A
  76   1.0000      -0.002544        -0.0692   19-B2
  77   1.0000       0.006987         0.1901   20-B1
  78   1.0000       0.010147         0.2761   22-A
  79   1.0000       0.013813         0.3759   19-B3
  80   1.0000       0.025858         0.7036   21-B1
  81   1.0000       0.034157         0.9295   23-A
  82   1.0000       0.043209         1.1758   20-B3
  83   1.0000       0.052677         1.4334   24-A
  84   1.0000       0.057827         1.5735   22-B1
  85   1.0000       0.064736         1.7616   20-B2
  86   1.0000       0.091355         2.4859   21-B3
  87   0.0000       0.138155         3.7594   21-B2
  88   0.0000       0.182618         4.9693   25-A
  89   0.0000       0.182658         4.9704   23-B1
  90   0.0000       0.198278         5.3954   22-B2
  91   0.0000       0.198679         5.4063   22-B3

MULLIKEN ATOMIC CHARGES AND SPIN POPULATIONS
--------------------------------------------
   0 Cu:    0.144650    0.374099
   1 S :   -0.424105    0.162751
   2 C :    0.023982   -0.006974
   3 S :   -0.424105    0.162751
   4 C :    0.023982   -0.006974
   5 S :   -0.424105    0.162751
   6 C :    0.023982   -0.006974
   7 S :   -0.424105    0.162751
   8 C :    0.023982   -0.006974
   9 C :   -0.087558   -0.001409
  10 C :   -0.087558   -0.001409
  11 C :   -0.139184   -0.000829
  12 H :    0.060167    0.001881
  13 C :   -0.139184   -0.000829
  14 H :    0.060167    0.001881
  15 H :    0.030536    0.001056
  16 H :    0.030536    0.001056
  17 C :   -0.087558   -0.001409
  18 C :   -0.087558   -0.001409
  19 C :   -0.139184   -0.000829
  20 H :    0.060167    0.001881
  21 C :   -0.139184   -0.000829
  22 H :    0.060167    0.001881
  23 H :    0.030536    0.001056
  24 H :    0.030536    0.001056
Sum of atomic charges         :   -2.0000000

LOEWDIN ATOMIC CHARGES AND SPIN POPULATIONS
-------------------------------------------
   0 Cu:   -0.895928    0.440713
   1 S :    0.007302    0.124457
   2 C :   -0.038265    0.005574
   3 S :    0.007302    0.124457
   4 C :   -0.038265    0.005574
   5 S :    0.007302    0.124457
   6 C :   -0.038265    0.005574
   7 S :    0.007302    0.124457
   8 C :   -0.038265    0.005574
   9 C :    0.303975    0.003868
  10 C :    0.303975    0.003868
  11 C :    0.311202   -0.000113
  12 H :   -0.441992    0.005822
  13 C :    0.311202   -0.000113
  14 H :   -0.441992    0.005822
  15 H :   -0.418240    0.000214
  16 H :   -0.418240    0.000214
  17 C :    0.303975    0.003868
  18 C :    0.303975    0.003868
  19 C :    0.311202   -0.000113
  20 H :   -0.441992    0.005822
  21 C :    0.311202   -0.000113
  22 H :   -0.441992    0.005822
  23 H :   -0.418240    0.000214
  24 H :   -0.418240    0.000214

  Mayer bond orders larger than 0.100000
B(  0-Cu,  1-S ) :   0.6988 B(  0-Cu,  3-S ) :   0.6988 B(  0-Cu,  5-S ) :   0.6988
B(  0-Cu,  7-S ) :   0.6988 B(  1-S ,  2-C ) :   1.1841 B(  2-C ,  6-C ) :   1.2450
B(  2-C , 17-C ) :   1.3143 B(  3-S ,  4-C ) :   1.1841 B(  4-C ,  8-C ) :   1.2450
B(  4-C , 10-C ) :   1.3143 B(  5-S ,  6-C ) :   1.1841 B(  6-C , 18-C ) :   1.3143
B(  7-S ,  8-C ) :   1.1841 B(  8-C ,  9-C ) :   1.3143 B(  9-C , 13-C ) :   1.3658
B(  9-C , 14-H ) :   0.9721 B( 10-C , 11-C ) :   1.3658 B( 10-C , 12-H ) :   0.9721
B( 11-C , 13-C ) :   1.3354 B( 11-C , 15-H ) :   0.9889 B( 13-C , 16-H ) :   0.9889
B( 17-C , 19-C ) :   1.3658 B( 17-C , 20-H ) :   0.9721 B( 18-C , 21-C ) :   1.3658
B( 18-C , 22-H ) :   0.9721 B( 19-C , 21-C ) :   1.3354 B( 19-C , 23-H ) :   0.9889
B( 21-C , 24-H ) :   0.9889

FINAL SINGLE POINT ENERGY     -3686.926190221170

DIPOLE MOMENT
-------------
                                X             Y             Z
Electronic contribution:      0.00000      -0.00000      -0.00000
Nuclear contribution   :     -0.00000      -0.00000      -0.00000
                        -----------------------------------------
Total Dipole Moment    :      0.00000      -0.00000      -0.00000
                        -----------------------------------------
Magnitude (a.u.)       :      0.00000
Magnitude (Debye)      :      0.00000

Rotational constants in cm-1:     0.033283     0.004801     0.004200
Rotational constants in MHz :   997.805812   143.931580   125.919671

                             ****ORCA TERMINATED NORMALLY****
TOTAL RUN TIME: 0 days 6 hours 12 minutes 32 seconds 668 msec
