                         Program Version 5.0.4 -  RELEASE  -
|  1> ! RIJCOSX nofrozencore ReducedPop printbasis
|  2> ! M06L ano-rcc-dzp autoaux
|  3>
|  4> %maxcore 5000
|  5> %basis
|  6> PCDTrimBas overlap
|  7> PCDTrimAuxJ Coulomb
|  8> PCDTrimAuxJK Coulomb
|  9> PCDTrimAuxC Coulomb
| 10> PCDThresh -1
| 11> end
| 12>
| 13> %basis
| 14> newgto Cu "ano-rcc-tzp" end
| 15> newgto S "ano-rcc-tzp" end
| 16> end
| 17>
| 18> %pal
| 19> nprocs 12
| 20> end
| 21>
| 22> % sym SymThresh 1e-2 end
| 23> * xyz -2 2
| 24> Cu 0.05414207150600478 0.0663310171514049 -0.009019615995079706
| 25> S 0.5549162614928316 -0.6549979740265904 -2.1540923638325915
| 26> C 1.8548205503167632 -1.7987009082961367 -1.9401047199711337
| 27> S -1.697936118351558 1.369926136404345 -0.7857367460310797
| 28> C -2.4174203467969675 2.0413223853635776 0.6548072257142414
| 29> S 1.7859610045381928 -1.262084303371625 0.7710725366772505
| 30> C 2.397154801401682 -2.0661502909424803 -0.6514311554547934
| 31> S -0.4668762827384101 0.7628582974004602 2.1394256401832794
| 32> C -1.8750791782851466 1.773881477456928 1.9434796378451522
| 33> C -2.5050459808965537 2.342077857746898 3.062536749200036
| 34> C -3.5551049958094696 2.8598811058074105 0.5674663804546778
| 35> C -4.162742854609869 3.412158328823587 1.6907530858772097
| 36> H -3.9624985709430485 3.056188657624397 -0.41907062847124305
| 37> C -3.632079933666014 3.150477453621983 2.9516746732640144
| 38> H -2.0855299537793477 2.1306268245974618 4.040829218900601
| 39> H -5.044602524779204 4.039238106216733 1.5797017635645438
| 40> H -4.091544502887666 3.5692724057515477 3.8442767542999916
| 41> C 2.3896557049624008 -2.483444381366305 -3.043313396172958
| 42> C 3.439699096295898 -3.001269649481722 -0.5482410221973967
| 43> C 3.423226465208846 -3.4063498761765265 -2.916881433324623
| 44> H 1.968148765534042 -2.2744339120283175 -4.021274495308221
| 45> C 3.953881211011817 -3.6680407669795865 -1.6559584840277646
| 46> H 3.8450834733429025 -3.2000387279642757 0.43863070231466383
| 47> H 3.8074825015892415 -3.9172843216685864 -3.796955370971881
| 48> H 4.760521657771047 -4.387273135060209 -1.5323772373670794
| 49> *
| 50>
| 51> % eprnmr
| 52> gtensor true
| 53> Nuclei = all H {aiso,adip,aorb,fgrad,rho}
| 54> Nuclei = all Cu {aiso,adip,aorb,fgrad,rho}
| 55> end
| 56>
| 57>                          ****END OF INPUT****

CARTESIAN COORDINATES (ANGSTROEM)
---------------------------------
  Cu     0.000000   -0.000000    0.086096
  S     -1.615597    1.661931    0.069994
  C     -0.711747    3.151642   -0.016110
  S     -1.615597   -1.661931    0.069994
  C     -0.711747   -3.151642   -0.016110
  S      1.615597    1.661931    0.069994
  C      0.711747    3.151642   -0.016110
  S      1.615597   -1.661931    0.069994
  C      0.711747   -3.151642   -0.016110
  C      1.378053   -4.385461   -0.091752
  C     -1.378053   -4.385461   -0.091752
  C     -0.696420   -5.596188   -0.166061
  H     -2.463249   -4.375043   -0.093343
  C      0.696420   -5.596188   -0.166061
  H      2.463249   -4.375043   -0.093343
  H     -1.250749   -6.530201   -0.225863
  H      1.250749   -6.530201   -0.225863
  C     -1.378053    4.385461   -0.091752
  C      1.378053    4.385461   -0.091752
  C     -0.696420    5.596188   -0.166061
  H     -2.463249    4.375043   -0.093343
  C      0.696420    5.596188   -0.166061
  H      2.463249    4.375043   -0.093343
  H     -1.250749    6.530201   -0.225863
  H      1.250749    6.530201   -0.225863

 Total Charge           Charge          ....   -2
 Multiplicity           Mult            ....    2
 Number of Electrons    NEL             ....  175
 Basis Dimension        Dim             ....  475

ORBITAL ENERGIES
----------------
                 SPIN UP ORBITALS
  NO   OCC          E(Eh)            E(eV)    Irrep
   0   1.0000    -318.181510     -8658.1591    1-A1
   1   1.0000     -88.014515     -2394.9967    1-B2
   2   1.0000     -88.014503     -2394.9964    1-A2
   3   1.0000     -88.014499     -2394.9963    1-B1
   4   1.0000     -88.014466     -2394.9954    2-A1
   5   1.0000     -38.026724     -1034.7598    3-A1
   6   1.0000     -33.529867      -912.3941    2-B1
   7   1.0000     -33.529022      -912.3711    2-B2
   8   1.0000     -33.515228      -911.9957    4-A1
   9   1.0000      -9.833024      -267.5702    3-B2
  10   1.0000      -9.833018      -267.5700    5-A1
  11   1.0000      -9.832693      -267.5612    2-A2
  12   1.0000      -9.832690      -267.5611    3-B1
  13   1.0000      -9.824271      -267.3320    4-B2
  14   1.0000      -9.824271      -267.3320    6-A1
  15   1.0000      -9.823841      -267.3203    3-A2
  16   1.0000      -9.823841      -267.3203    4-B1
  17   1.0000      -9.816879      -267.1309    4-A2
  18   1.0000      -9.816879      -267.1308    5-B1
  19   1.0000      -9.816875      -267.1307    5-B2
  20   1.0000      -9.816874      -267.1307    7-A1
  21   1.0000      -7.583149      -206.3480    5-A2
  22   1.0000      -7.583149      -206.3480    6-B1
  23   1.0000      -7.583145      -206.3479    6-B2
  24   1.0000      -7.583133      -206.3475    8-A1
  25   1.0000      -5.506370      -149.8359    6-A2
  26   1.0000      -5.506369      -149.8359    7-B1
  27   1.0000      -5.506369      -149.8359    7-B2
  28   1.0000      -5.506369      -149.8359    9-A1
  29   1.0000      -5.501050      -149.6912    7-A2
  30   1.0000      -5.501050      -149.6912    8-B1
  31   1.0000      -5.501050      -149.6912    8-B2
  32   1.0000      -5.501049      -149.6912   10-A1
  33   1.0000      -5.499211      -149.6411    8-A2
  34   1.0000      -5.499211      -149.6411    9-B1
  35   1.0000      -5.499211      -149.6411    9-B2
  36   1.0000      -5.499210      -149.6411   11-A1
  37   1.0000      -4.024344      -109.5080   12-A1
  38   1.0000      -2.545792       -69.2745   10-B1
  39   1.0000      -2.544253       -69.2326   10-B2
  40   1.0000      -2.516805       -68.4858   13-A1
  41   1.0000      -0.588871       -16.0240   14-A1
  42   1.0000      -0.588754       -16.0208   11-B2
  43   1.0000      -0.504434       -13.7263   15-A1
  44   1.0000      -0.503344       -13.6967   12-B2
  45   1.0000      -0.489316       -13.3150   11-B1
  46   1.0000      -0.489066       -13.3082    9-A2
  47   1.0000      -0.409327       -11.1384   12-B1
  48   1.0000      -0.406722       -11.0675   10-A2
  49   1.0000      -0.387900       -10.5553   16-A1
  50   1.0000      -0.381297       -10.3756   13-B2
  51   1.0000      -0.322023        -8.7627   17-A1
  52   1.0000      -0.319326        -8.6893   14-B2
  53   1.0000      -0.299870        -8.1599   13-B1
  54   1.0000      -0.296398        -8.0654   11-A2
  55   1.0000      -0.232913        -6.3379   18-A1
  56   1.0000      -0.227716        -6.1965   15-B2
  57   1.0000      -0.189656        -5.1608   19-A1
  58   1.0000      -0.188808        -5.1377   16-B2
  59   1.0000      -0.177527        -4.8308   14-B1
  60   1.0000      -0.174544        -4.7496   12-A2
  61   1.0000      -0.146358        -3.9826   15-B1
  62   1.0000      -0.143447        -3.9034   13-A2
  63   1.0000      -0.131258        -3.5717   20-A1
  64   1.0000      -0.116597        -3.1728   21-A1
  65   1.0000      -0.116483        -3.1697   17-B2
  66   1.0000      -0.113777        -3.0960   18-B2
  67   1.0000      -0.086667        -2.3583   22-A1
  68   1.0000      -0.069634        -1.8948   16-B1
  69   1.0000      -0.065490        -1.7821   14-A2
  70   1.0000      -0.062119        -1.6903   19-B2
  71   1.0000      -0.038851        -1.0572   20-B2
  72   1.0000      -0.037380        -1.0172   23-A1
  73   1.0000      -0.031325        -0.8524   15-A2
  74   1.0000      -0.029255        -0.7961   24-A1
  75   1.0000      -0.026037        -0.7085   17-B1
  76   1.0000      -0.018847        -0.5129   16-A2
  77   1.0000      -0.002801        -0.0762   18-B1
  78   1.0000      -0.000735        -0.0200   25-A1
  79   1.0000       0.001242         0.0338   21-B2
  80   1.0000       0.018355         0.4995   26-A1
  81   1.0000       0.018879         0.5137   22-B2
  82   1.0000       0.034722         0.9448   19-B1
  83   1.0000       0.050289         1.3684   17-A2
  84   1.0000       0.052358         1.4247   20-B1
  85   1.0000       0.062385         1.6976   27-A1
  86   1.0000       0.087459         2.3799   23-B2
  87   1.0000       0.104920         2.8550   18-A2
  88   0.0000       0.181332         4.9343   28-A1
  89   0.0000       0.181444         4.9373   24-B2
  90   0.0000       0.196788         5.3549   19-A2
  91   0.0000       0.196953         5.3594   21-B1
  92   0.0000       0.200408         5.4534   29-A1

                 SPIN DOWN ORBITALS
  NO   OCC          E(Eh)            E(eV)    Irrep
   0   1.0000    -318.181336     -8658.1543    1-A1
   1   1.0000     -88.013447     -2394.9677    1-B2
   2   1.0000     -88.013435     -2394.9673    1-A2
   3   1.0000     -88.013431     -2394.9672    1-B1
   4   1.0000     -88.013398     -2394.9663    2-A1
   5   1.0000     -38.010836     -1034.3274    3-A1
   6   1.0000     -33.514689      -911.9811    2-B1
   7   1.0000     -33.513875      -911.9589    2-B2
   8   1.0000     -33.510899      -911.8779    4-A1
   9   1.0000      -9.833140      -267.5733    3-B2
  10   1.0000      -9.833134      -267.5732    5-A1
  11   1.0000      -9.832807      -267.5643    2-A2
  12   1.0000      -9.832805      -267.5642    3-B1
  13   1.0000      -9.824249      -267.3314    4-B2
  14   1.0000      -9.824249      -267.3314    6-A1
  15   1.0000      -9.823819      -267.3197    3-A2
  16   1.0000      -9.823819      -267.3197    4-B1
  17   1.0000      -9.816821      -267.1293    4-A2
  18   1.0000      -9.816821      -267.1293    5-B1
  19   1.0000      -9.816817      -267.1292    5-B2
  20   1.0000      -9.816816      -267.1292    7-A1
  21   1.0000      -7.582416      -206.3280    5-A2
  22   1.0000      -7.582416      -206.3280    6-B1
  23   1.0000      -7.582413      -206.3279    6-B2
  24   1.0000      -7.582400      -206.3276    8-A1
  25   1.0000      -5.505442      -149.8107    6-A2
  26   1.0000      -5.505442      -149.8107    7-B1
  27   1.0000      -5.505441      -149.8107    7-B2
  28   1.0000      -5.505441      -149.8107    9-A1
  29   1.0000      -5.498808      -149.6302    7-A2
  30   1.0000      -5.498808      -149.6302    8-B1
  31   1.0000      -5.498808      -149.6302    8-B2
  32   1.0000      -5.498808      -149.6302   10-A1
  33   1.0000      -5.498394      -149.6189    8-A2
  34   1.0000      -5.498393      -149.6189    9-B1
  35   1.0000      -5.498393      -149.6189    9-B2
  36   1.0000      -5.498393      -149.6189   11-A1
  37   1.0000      -3.990564      -108.5888   12-A1
  38   1.0000      -2.505087       -68.1669   13-A1
  39   1.0000      -2.503674       -68.1284   10-B1
  40   1.0000      -2.502110       -68.0859   10-B2
  41   1.0000      -0.588509       -16.0141   14-A1
  42   1.0000      -0.588402       -16.0112   11-B2
  43   1.0000      -0.503121       -13.6906   15-A1
  44   1.0000      -0.502103       -13.6629   12-B2
  45   1.0000      -0.488277       -13.2867   11-B1
  46   1.0000      -0.488051       -13.2806    9-A2
  47   1.0000      -0.405356       -11.0303   12-B1
  48   1.0000      -0.402655       -10.9568   10-A2
  49   1.0000      -0.384700       -10.4682   16-A1
  50   1.0000      -0.378163       -10.2903   13-B2
  51   1.0000      -0.320809        -8.7296   17-A1
  52   1.0000      -0.317793        -8.6476   14-B2
  53   1.0000      -0.298083        -8.1113   13-B1
  54   1.0000      -0.294182        -8.0051   11-A2
  55   1.0000      -0.232343        -6.3224   18-A1
  56   1.0000      -0.227018        -6.1775   15-B2
  57   1.0000      -0.188675        -5.1341   19-A1
  58   1.0000      -0.187912        -5.1133   16-B2
  59   1.0000      -0.177003        -4.8165   14-B1
  60   1.0000      -0.173671        -4.7258   12-A2
  61   1.0000      -0.145680        -3.9641   15-B1
  62   1.0000      -0.141940        -3.8624   13-A2
  63   1.0000      -0.130001        -3.5375   20-A1
  64   1.0000      -0.116426        -3.1681   21-A1
  65   1.0000      -0.116290        -3.1644   17-B2
  66   1.0000      -0.112886        -3.0718   18-B2
  67   1.0000      -0.085247        -2.3197   22-A1
  68   1.0000      -0.068154        -1.8546   16-B1
  69   1.0000      -0.060416        -1.6440   19-B2
  70   1.0000      -0.050835        -1.3833   14-A2
  71   1.0000      -0.036855        -1.0029   20-B2
  72   1.0000      -0.036480        -0.9927   23-A1
  73   1.0000      -0.022840        -0.6215   17-B1
  74   1.0000      -0.022381        -0.6090   24-A1
  75   1.0000      -0.018120        -0.4931   15-A2
  76   1.0000      -0.002512        -0.0684   16-A2
  77   1.0000       0.006813         0.1854   18-B1
  78   1.0000       0.010128         0.2756   25-A1
  79   1.0000       0.013521         0.3679   21-B2
  80   1.0000       0.025689         0.6990   22-B2
  81   1.0000       0.034109         0.9281   26-A1
  82   1.0000       0.043031         1.1709   19-B1
  83   1.0000       0.053127         1.4456   17-A2
  84   1.0000       0.057957         1.5771   20-B1
  85   1.0000       0.064234         1.7479   27-A1
  86   1.0000       0.091622         2.4932   23-B2
  87   0.0000       0.138001         3.7552   18-A2
  88   0.0000       0.182483         4.9656   28-A1
  89   0.0000       0.182577         4.9682   24-B2
  90   0.0000       0.198716         5.4073   19-A2
  91   0.0000       0.198916         5.4128   21-B1

MULLIKEN ATOMIC CHARGES AND SPIN POPULATIONS
--------------------------------------------
   0 Cu:    0.141626    0.375913
   1 S :   -0.424264    0.162869
   2 C :    0.023378   -0.007477
   3 S :   -0.424264    0.162869
   4 C :    0.023378   -0.007477
   5 S :   -0.424264    0.162869
   6 C :    0.023378   -0.007477
   7 S :   -0.424264    0.162869
   8 C :    0.023378   -0.007477
   9 C :   -0.093210   -0.001638
  10 C :   -0.093210   -0.001638
  11 C :   -0.136880   -0.000853
  12 H :    0.065614    0.002028
  13 C :   -0.136880   -0.000853
  14 H :    0.065614    0.002028
  15 H :    0.029955    0.001093
  16 H :    0.029955    0.001093
  17 C :   -0.093210   -0.001638
  18 C :   -0.093210   -0.001638
  19 C :   -0.136880   -0.000853
  20 H :    0.065614    0.002028
  21 C :   -0.136880   -0.000853
  22 H :    0.065614    0.002028
  23 H :    0.029955    0.001093
  24 H :    0.029955    0.001093
Sum of atomic charges         :   -2.0000000

LOEWDIN ATOMIC CHARGES AND SPIN POPULATIONS
-------------------------------------------
   0 Cu:   -0.894876    0.442499
   1 S :    0.008231    0.124072
   2 C :   -0.037420    0.005132
   3 S :    0.008231    0.124072
   4 C :   -0.037420    0.005132
   5 S :    0.008231    0.124072
   6 C :   -0.037420    0.005132
   7 S :    0.008231    0.124072
   8 C :   -0.037420    0.005132
   9 C :    0.307187    0.003840
  10 C :    0.307187    0.003840
  11 C :    0.310818   -0.000118
  12 H :   -0.447997    0.006239
  13 C :    0.310818   -0.000118
  14 H :   -0.447997    0.006239
  15 H :   -0.417099    0.000210
  16 H :   -0.417099    0.000210
  17 C :    0.307187    0.003840
  18 C :    0.307187    0.003840
  19 C :    0.310818   -0.000118
  20 H :   -0.447997    0.006239
  21 C :    0.310818   -0.000118
  22 H :   -0.447997    0.006239
  23 H :   -0.417099    0.000210
  24 H :   -0.417099    0.000210

  Mayer bond orders larger than 0.100000
B(  0-Cu,  1-S ) :   0.7011 B(  0-Cu,  3-S ) :   0.7011 B(  0-Cu,  5-S ) :   0.7011
B(  0-Cu,  7-S ) :   0.7011 B(  1-S ,  2-C ) :   1.1840 B(  2-C ,  6-C ) :   1.2443
B(  2-C , 17-C ) :   1.3185 B(  3-S ,  4-C ) :   1.1840 B(  4-C ,  8-C ) :   1.2443
B(  4-C , 10-C ) :   1.3185 B(  5-S ,  6-C ) :   1.1840 B(  6-C , 18-C ) :   1.3185
B(  7-S ,  8-C ) :   1.1840 B(  8-C ,  9-C ) :   1.3185 B(  9-C , 13-C ) :   1.3621
B(  9-C , 14-H ) :   0.9694 B( 10-C , 11-C ) :   1.3621 B( 10-C , 12-H ) :   0.9694
B( 11-C , 13-C ) :   1.3393 B( 11-C , 15-H ) :   0.9890 B( 13-C , 16-H ) :   0.9890
B( 17-C , 19-C ) :   1.3621 B( 17-C , 20-H ) :   0.9694 B( 18-C , 21-C ) :   1.3621
B( 18-C , 22-H ) :   0.9694 B( 19-C , 21-C ) :   1.3393 B( 19-C , 23-H ) :   0.9890
B( 21-C , 24-H ) :   0.9890

FINAL SINGLE POINT ENERGY     -3686.928609684585

DIPOLE MOMENT
-------------
                                X             Y             Z
Electronic contribution:      0.00000       0.00000       1.59695
Nuclear contribution   :      0.00000      -0.00000      -1.65274
                        -----------------------------------------
Total Dipole Moment    :      0.00000       0.00000      -0.05579
                        -----------------------------------------
Magnitude (a.u.)       :      0.05579
Magnitude (Debye)      :      0.14180

Rotational constants in cm-1:     0.033220     0.004800     0.004200
Rotational constants in MHz :   995.906316   143.891920   125.919615

                             ****ORCA TERMINATED NORMALLY****
TOTAL RUN TIME: 0 days 7 hours 8 minutes 20 seconds 58 msec
