                         Program Version 5.0.4 -  RELEASE  -
|  1> ! RIJCOSX nofrozencore ReducedPop printbasis
|  2> ! M06L ano-rcc-dzp autoaux
|  3>
|  4> %maxcore 5000
|  5> %basis
|  6> PCDTrimBas overlap
|  7> PCDTrimAuxJ Coulomb
|  8> PCDTrimAuxJK Coulomb
|  9> PCDTrimAuxC Coulomb
| 10> PCDThresh -1
| 11> end
| 12>
| 13> %basis
| 14> newgto Cu "ano-rcc-tzp" end
| 15> newgto S "ano-rcc-tzp" end
| 16> end
| 17>
| 18> %pal
| 19> nprocs 12
| 20> end
| 21>
| 22> % sym SymThresh 1e-2 end
| 23> * xyz -2 2
| 24> Cu -5.1194285489976194e-05 -4.6288629605184355e-05 -3.181992932809349e-05
| 25> S 1.6527103730246986 -0.8932019574438562 -1.3575373990535307
| 26> C 2.288042975242506 -2.236876783453818 -0.44805028443549
| 27> S -0.500852569991063 1.62969841795848 -1.5701601491745913
| 28> C -1.7715418086517631 2.569524084413549 -0.836112086269869
| 29> S 0.49997351022047853 -1.6304932424536742 1.5696137674933655
| 30> C 1.7802050942529024 -2.561690951974703 0.8414967719420876
| 31> S -1.6535894327952831 0.8924071329486619 1.3569910173723048
| 32> C -2.27944300888921 2.2446526641665727 0.4533956138793291
| 33> C -3.3752642071728722 2.976031848541341 0.9415869905559939
| 34> C -2.391915208891511 3.605007920878303 -1.5551176682782486
| 35> C -3.34963561141115 4.431647214786538 -0.971627886704044
| 36> H -1.7064246643656962 4.108371867891208 -2.356293487185866
| 37> C -3.8463927722402693 4.113958599777988 0.29023960918446745
| 38> H -3.4628750387881944 2.9852348985886668 2.1073183461596328
| 39> H -3.9056938033493305 5.13265946287855 -1.6259443139603265
| 40> H -4.799447824816523 4.560659656735553 0.6393395887904074
| 41> C 3.3487550241388955 -2.999999463171718 -0.9580634972792305
| 42> C 2.3655029729092445 -3.6288905680413697 1.5387007417418492
| 43> C 3.860743338793933 -4.100983166026556 -0.28131998057386604
| 44> H 3.6090704251401156 -2.853048580837325 -2.0164502577140526
| 45> C 3.363849435333834 -4.4187954204010245 0.980462522608677
| 46> H 1.851577277631712 -3.9771297450899 2.44651309881024
| 47> H 4.724949044827875 -4.628019738667459 -0.6856456094824297
| 48> H 3.832482290197148 -5.198855629400251 1.5804383970175935
| 49> *
| 50>
| 51> % eprnmr
| 52> gtensor true
| 53> Nuclei = all H {aiso,adip,aorb,fgrad,rho}
| 54> Nuclei = all Cu {aiso,adip,aorb,fgrad,rho}
| 55> end
| 56>
| 57>                          ****END OF INPUT****

CARTESIAN COORDINATES (ANGSTROEM)
---------------------------------
  Cu    -0.000057   -0.000050   -0.000000
  S      1.097371   -1.248116   -1.615597
  C      2.073192   -2.373773   -0.711747
  S     -1.098351    1.247255   -1.615597
  C     -2.063564    2.382229   -0.711747
  S      1.097371   -1.248116    1.615597
  C      2.073192   -2.373773    0.711747
  S     -1.098351    1.247255    1.615597
  C     -2.063564    2.382229    0.711747
  C     -2.944085    3.251012    1.378053
  C     -2.944085    3.251012   -1.378053
  C     -3.665784    4.228552   -0.696420
  H     -2.611288    3.529433   -2.463249
  C     -3.665784    4.228552    0.696420
  H     -2.611288    3.529433    2.463249
  H     -4.449431    4.783397   -1.250748
  H     -4.449431    4.783397    1.250748
  C      2.914570   -3.276934   -1.378053
  C      2.914570   -3.276934    1.378053
  C      3.681715   -4.214560   -0.696420
  H      2.773776   -3.386725   -2.463249
  C      3.681715   -4.214560    0.696420
  H      2.773776   -3.386725    2.463249
  H      4.367052   -4.855749   -1.250748
  H      4.367052   -4.855749    1.250748

 Total Charge           Charge          ....   -2
 Multiplicity           Mult            ....    2
 Number of Electrons    NEL             ....  175
 Basis Dimension        Dim             ....  475

ORBITAL ENERGIES
----------------
                 SPIN UP ORBITALS
  NO   OCC          E(Eh)            E(eV)    Irrep
   0   1.0000    -318.183632     -8658.2168    1-A'
   1   1.0000     -88.017692     -2395.0832    1-A"
   2   1.0000     -88.017683     -2395.0829    2-A'
   3   1.0000     -88.016398     -2395.0480    2-A"
   4   1.0000     -88.016387     -2395.0476    3-A'
   5   1.0000     -38.028863     -1034.8180    4-A'
   6   1.0000     -33.531983      -912.4516    3-A"
   7   1.0000     -33.531145      -912.4289    5-A'
   8   1.0000     -33.517408      -912.0550    6-A'
   9   1.0000      -9.836763      -267.6719    7-A'
  10   1.0000      -9.836434      -267.6630    4-A"
  11   1.0000      -9.834508      -267.6106    8-A'
  12   1.0000      -9.834179      -267.6016    5-A"
  13   1.0000      -9.826025      -267.3797    9-A'
  14   1.0000      -9.825601      -267.3682    6-A"
  15   1.0000      -9.825230      -267.3581   10-A'
  16   1.0000      -9.824801      -267.3464    7-A"
  17   1.0000      -9.823322      -267.3062    8-A"
  18   1.0000      -9.823320      -267.3061   11-A'
  19   1.0000      -9.818800      -267.1831    9-A"
  20   1.0000      -9.818796      -267.1830   12-A'
  21   1.0000      -7.586328      -206.4345   10-A"
  22   1.0000      -7.586319      -206.4342   13-A'
  23   1.0000      -7.585088      -206.4007   11-A"
  24   1.0000      -7.585078      -206.4005   14-A'
  25   1.0000      -5.509545      -149.9223   12-A"
  26   1.0000      -5.509544      -149.9223   15-A'
  27   1.0000      -5.508293      -149.8883   13-A"
  28   1.0000      -5.508292      -149.8883   16-A'
  29   1.0000      -5.504171      -149.7761   14-A"
  30   1.0000      -5.504171      -149.7761   17-A'
  31   1.0000      -5.502984      -149.7438   15-A"
  32   1.0000      -5.502983      -149.7438   18-A'
  33   1.0000      -5.502469      -149.7298   16-A"
  34   1.0000      -5.502469      -149.7298   19-A'
  35   1.0000      -5.501165      -149.6943   17-A"
  36   1.0000      -5.501164      -149.6943   20-A'
  37   1.0000      -4.026484      -109.5662   21-A'
  38   1.0000      -2.547901       -69.3319   18-A"
  39   1.0000      -2.546368       -69.2902   22-A'
  40   1.0000      -2.519007       -68.5457   23-A'
  41   1.0000      -0.590953       -16.0806   24-A'
  42   1.0000      -0.590830       -16.0773   25-A'
  43   1.0000      -0.506138       -13.7727   26-A'
  44   1.0000      -0.505033       -13.7426   27-A'
  45   1.0000      -0.490824       -13.3560   19-A"
  46   1.0000      -0.488316       -13.2878   20-A"
  47   1.0000      -0.410950       -11.1825   21-A"
  48   1.0000      -0.408280       -11.1099   22-A"
  49   1.0000      -0.389038       -10.5863   28-A'
  50   1.0000      -0.382196       -10.4001   29-A'
  51   1.0000      -0.320853        -8.7309   30-A'
  52   1.0000      -0.313716        -8.5366   31-A'
  53   1.0000      -0.300081        -8.1656   23-A"
  54   1.0000      -0.295580        -8.0431   24-A"
  55   1.0000      -0.231021        -6.2864   32-A'
  56   1.0000      -0.221864        -6.0372   33-A'
  57   1.0000      -0.191125        -5.2008   34-A'
  58   1.0000      -0.189922        -5.1680   35-A'
  59   1.0000      -0.175031        -4.7628   25-A"
  60   1.0000      -0.163700        -4.4545   26-A"
  61   1.0000      -0.144771        -3.9394   27-A"
  62   1.0000      -0.138609        -3.7717   36-A'
  63   1.0000      -0.134778        -3.6675   28-A"
  64   1.0000      -0.129392        -3.5209   37-A'
  65   1.0000      -0.119410        -3.2493   38-A'
  66   1.0000      -0.103793        -2.8243   39-A'
  67   1.0000      -0.077873        -2.1190   40-A'
  68   1.0000      -0.070873        -1.9286   29-A"
  69   1.0000      -0.066940        -1.8215   30-A"
  70   1.0000      -0.058881        -1.6022   41-A'
  71   1.0000      -0.039700        -1.0803   42-A'
  72   1.0000      -0.036393        -0.9903   43-A'
  73   1.0000      -0.034597        -0.9414   31-A"
  74   1.0000      -0.030460        -0.8288   44-A'
  75   1.0000      -0.026884        -0.7316   32-A"
  76   1.0000      -0.020233        -0.5506   33-A"
  77   1.0000      -0.004723        -0.1285   34-A"
  78   1.0000      -0.002768        -0.0753   45-A'
  79   1.0000      -0.000944        -0.0257   46-A'
  80   1.0000       0.016160         0.4397   47-A'
  81   1.0000       0.016899         0.4598   48-A'
  82   1.0000       0.032748         0.8911   35-A"
  83   1.0000       0.047346         1.2884   36-A"
  84   1.0000       0.049865         1.3569   37-A"
  85   1.0000       0.059611         1.6221   49-A'
  86   1.0000       0.084511         2.2997   50-A'
  87   1.0000       0.103090         2.8052   38-A"
  88   0.0000       0.179753         4.8913   51-A'
  89   0.0000       0.180762         4.9188   52-A'
  90   0.0000       0.182762         4.9732   53-A'
  91   0.0000       0.196361         5.3432   39-A"
  92   0.0000       0.197248         5.3674   54-A'

                 SPIN DOWN ORBITALS
  NO   OCC          E(Eh)            E(eV)    Irrep
   0   1.0000    -318.183458     -8658.2121    1-A'
   1   1.0000     -88.016617     -2395.0539    1-A"
   2   1.0000     -88.016607     -2395.0536    2-A'
   3   1.0000     -88.015324     -2395.0187    2-A"
   4   1.0000     -88.015313     -2395.0184    3-A'
   5   1.0000     -38.012984     -1034.3859    4-A'
   6   1.0000     -33.516816      -912.0389    3-A"
   7   1.0000     -33.516010      -912.0170    5-A'
   8   1.0000     -33.513077      -911.9372    6-A'
   9   1.0000      -9.836878      -267.6751    7-A'
  10   1.0000      -9.836548      -267.6661    4-A"
  11   1.0000      -9.834624      -267.6137    8-A'
  12   1.0000      -9.834293      -267.6047    5-A"
  13   1.0000      -9.826000      -267.3790    9-A'
  14   1.0000      -9.825576      -267.3675    6-A"
  15   1.0000      -9.825207      -267.3575   10-A'
  16   1.0000      -9.824778      -267.3458    7-A"
  17   1.0000      -9.823272      -267.3048    8-A"
  18   1.0000      -9.823270      -267.3048   11-A'
  19   1.0000      -9.818743      -267.1816    9-A"
  20   1.0000      -9.818739      -267.1815   12-A'
  21   1.0000      -7.585590      -206.4144   10-A"
  22   1.0000      -7.585582      -206.4142   13-A'
  23   1.0000      -7.584352      -206.3807   11-A"
  24   1.0000      -7.584343      -206.3805   14-A'
  25   1.0000      -5.508611      -149.8969   12-A"
  26   1.0000      -5.508610      -149.8969   15-A'
  27   1.0000      -5.507358      -149.8628   13-A"
  28   1.0000      -5.507358      -149.8628   16-A'
  29   1.0000      -5.501916      -149.7147   14-A"
  30   1.0000      -5.501915      -149.7147   17-A'
  31   1.0000      -5.501644      -149.7074   15-A"
  32   1.0000      -5.501644      -149.7073   18-A'
  33   1.0000      -5.500733      -149.6826   16-A"
  34   1.0000      -5.500733      -149.6825   19-A'
  35   1.0000      -5.500346      -149.6720   17-A"
  36   1.0000      -5.500345      -149.6720   20-A'
  37   1.0000      -3.992743      -108.6481   21-A'
  38   1.0000      -2.507290       -68.2268   22-A'
  39   1.0000      -2.505846       -68.1875   18-A"
  40   1.0000      -2.504261       -68.1444   23-A'
  41   1.0000      -0.590582       -16.0705   24-A'
  42   1.0000      -0.590470       -16.0675   25-A'
  43   1.0000      -0.504807       -13.7365   26-A'
  44   1.0000      -0.503774       -13.7084   27-A'
  45   1.0000      -0.489765       -13.3272   19-A"
  46   1.0000      -0.487195       -13.2573   20-A"
  47   1.0000      -0.406998       -11.0750   21-A"
  48   1.0000      -0.404233       -10.9997   22-A"
  49   1.0000      -0.385764       -10.4972   28-A'
  50   1.0000      -0.378940       -10.3115   29-A'
  51   1.0000      -0.319559        -8.6956   30-A'
  52   1.0000      -0.312361        -8.4998   31-A'
  53   1.0000      -0.298238        -8.1155   23-A"
  54   1.0000      -0.293377        -7.9832   24-A"
  55   1.0000      -0.230423        -6.2701   32-A'
  56   1.0000      -0.221251        -6.0206   33-A'
  57   1.0000      -0.190149        -5.1742   34-A'
  58   1.0000      -0.189023        -5.1436   35-A'
  59   1.0000      -0.174362        -4.7446   25-A"
  60   1.0000      -0.162713        -4.4277   26-A"
  61   1.0000      -0.143734        -3.9112   27-A"
  62   1.0000      -0.138026        -3.7559   36-A'
  63   1.0000      -0.133726        -3.6389   28-A"
  64   1.0000      -0.128765        -3.5039   37-A'
  65   1.0000      -0.118721        -3.2306   38-A'
  66   1.0000      -0.102732        -2.7955   39-A'
  67   1.0000      -0.076409        -2.0792   40-A'
  68   1.0000      -0.069439        -1.8895   29-A"
  69   1.0000      -0.057346        -1.5605   41-A'
  70   1.0000      -0.052755        -1.4355   30-A"
  71   1.0000      -0.037955        -1.0328   42-A'
  72   1.0000      -0.035167        -0.9570   43-A'
  73   1.0000      -0.024370        -0.6631   31-A"
  74   1.0000      -0.023923        -0.6510   44-A'
  75   1.0000      -0.019534        -0.5315   32-A"
  76   1.0000      -0.004615        -0.1256   33-A"
  77   1.0000       0.004744         0.1291   34-A"
  78   1.0000       0.007993         0.2175   45-A'
  79   1.0000       0.011306         0.3077   46-A'
  80   1.0000       0.023697         0.6448   47-A'
  81   1.0000       0.031884         0.8676   48-A'
  82   1.0000       0.041010         1.1159   35-A"
  83   1.0000       0.050327         1.3695   36-A"
  84   1.0000       0.055398         1.5075   37-A"
  85   1.0000       0.061476         1.6729   49-A'
  86   1.0000       0.088684         2.4132   50-A'
  87   0.0000       0.136149         3.7048   38-A"
  88   0.0000       0.180238         4.9045   51-A'
  89   0.0000       0.181873         4.9490   52-A'
  90   0.0000       0.183510         4.9936   53-A'
  91   0.0000       0.197365         5.3706   54-A'

MULLIKEN ATOMIC CHARGES AND SPIN POPULATIONS
--------------------------------------------
   0 Cu:    0.144840    0.375158
   1 S :   -0.421406    0.163492
   2 C :    0.031593   -0.007565
   3 S :   -0.407224    0.163465
   4 C :    0.058984   -0.007828
   5 S :   -0.421406    0.163492
   6 C :    0.031593   -0.007565
   7 S :   -0.407224    0.163465
   8 C :    0.058984   -0.007828
   9 C :   -0.117001   -0.001558
  10 C :   -0.117001   -0.001558
  11 C :   -0.107269   -0.000769
  12 H :    0.012254    0.001376
  13 C :   -0.107269   -0.000769
  14 H :    0.012254    0.001376
  15 H :    0.021938    0.001193
  16 H :    0.021938    0.001193
  17 C :   -0.097926   -0.001538
  18 C :   -0.097926   -0.001538
  19 C :   -0.131412   -0.000845
  20 H :    0.054637    0.001884
  21 C :   -0.131412   -0.000845
  22 H :    0.054637    0.001884
  23 H :    0.030412    0.001113
  24 H :    0.030412    0.001113
Sum of atomic charges         :   -2.0000000

LOEWDIN ATOMIC CHARGES AND SPIN POPULATIONS
-------------------------------------------
   0 Cu:   -0.892884    0.442197
   1 S :    0.009823    0.124527
   2 C :   -0.039806    0.005147
   3 S :    0.009570    0.124846
   4 C :   -0.047212    0.005074
   5 S :    0.009823    0.124527
   6 C :   -0.039806    0.005147
   7 S :    0.009570    0.124846
   8 C :   -0.047212    0.005074
   9 C :    0.265442    0.003410
  10 C :    0.265442    0.003410
  11 C :    0.284829   -0.000109
  12 H :   -0.385153    0.005675
  13 C :    0.284829   -0.000109
  14 H :   -0.385153    0.005675
  15 H :   -0.406356    0.000245
  16 H :   -0.406356    0.000245
  17 C :    0.299258    0.003823
  18 C :    0.299258    0.003823
  19 C :    0.307433   -0.000117
  20 H :   -0.435469    0.006171
  21 C :    0.307433   -0.000117
  22 H :   -0.435469    0.006171
  23 H :   -0.415917    0.000212
  24 H :   -0.415917    0.000212

  Mayer bond orders larger than 0.100000
B(  0-Cu,  1-S ) :   0.7012 B(  0-Cu,  3-S ) :   0.6977 B(  0-Cu,  5-S ) :   0.7012
B(  0-Cu,  7-S ) :   0.6977 B(  1-S ,  2-C ) :   1.1846 B(  2-C ,  6-C ) :   1.2410
B(  2-C , 17-C ) :   1.3199 B(  3-S ,  4-C ) :   1.1896 B(  4-C ,  8-C ) :   1.2266
B(  4-C , 10-C ) :   1.3246 B(  5-S ,  6-C ) :   1.1846 B(  6-C , 18-C ) :   1.3199
B(  7-S ,  8-C ) :   1.1896 B(  8-C ,  9-C ) :   1.3246 B(  9-C , 13-C ) :   1.3336
B(  9-C , 14-H ) :   1.0012 B( 10-C , 11-C ) :   1.3336 B( 10-C , 12-H ) :   1.0012
B( 11-C , 13-C ) :   1.3568 B( 11-C , 15-H ) :   0.9899 B( 13-C , 16-H ) :   0.9899
B( 17-C , 19-C ) :   1.3575 B( 17-C , 20-H ) :   0.9780 B( 18-C , 21-C ) :   1.3575
B( 18-C , 22-H ) :   0.9780 B( 19-C , 21-C ) :   1.3424 B( 19-C , 23-H ) :   0.9882
B( 21-C , 24-H ) :   0.9882

FINAL SINGLE POINT ENERGY     -3686.891509542507

DIPOLE MOMENT
-------------
                                X             Y             Z
Electronic contribution:     -0.00093      -0.26638      -0.00000
Nuclear contribution   :      0.15066       0.13232      -0.00000
                        -----------------------------------------
Total Dipole Moment    :      0.14973      -0.13406      -0.00000
                        -----------------------------------------
Magnitude (a.u.)       :      0.20098
Magnitude (Debye)      :      0.51084

Rotational constants in cm-1:     0.033385     0.004803     0.004200
Rotational constants in MHz :  1000.851606   143.994718   125.919615

                             ****ORCA TERMINATED NORMALLY****
TOTAL RUN TIME: 0 days 7 hours 8 minutes 54 seconds 112 msec
