                         Program Version 5.0.4 -  RELEASE  -
|  1> ! RIJCOSX nofrozencore ReducedPop printbasis
|  2> ! M06L ano-rcc-dzp autoaux
|  3>
|  4> %maxcore 5000
|  5> %basis
|  6> PCDTrimBas overlap
|  7> PCDTrimAuxJ Coulomb
|  8> PCDTrimAuxJK Coulomb
|  9> PCDTrimAuxC Coulomb
| 10> PCDThresh -1
| 11> end
| 12>
| 13> %basis
| 14> newgto Cu "ano-rcc-tzp" end
| 15> newgto S "ano-rcc-tzp" end
| 16> end
| 17>
| 18> %pal
| 19> nprocs 12
| 20> end
| 21>
| 22> % sym SymThresh 1e-2 end
| 23> * xyz -2 2
| 24> Cu -3.1010164100696346e-05 5.274523044095554e-05 5.09540026708244e-05
| 25> S 1.259426915661807 -1.8160029081064253 0.695445957915203
| 26> C 1.320819448503455 -1.7009376042693887 2.4551804998823084
| 27> S 0.2301631527061121 -0.6090859621639921 -2.222806442972745
| 28> C -0.6539976109046501 0.6126802759461727 -3.1614183211020226
| 29> S -0.2299337689538718 0.6090646596931523 2.2255563512073855
| 30> C 0.643876279244842 -0.6082507868596578 3.0696623385839077
| 31> S -1.2606638805662618 1.8176719699188377 -0.6971000680963862
| 32> C -1.279527244290973 1.645833628383635 -2.3947715864766117
| 33> C -2.0229726527806795 2.6691213032932084 -3.21818882827249
| 34> C -0.7303277472021704 0.5746798541169322 -4.458705002841491
| 35> C -1.3803288435741101 1.4634006307927567 -5.229055883441362
| 36> H -0.26952248169492865 -0.192226558281356 -5.07279720383511
| 37> C -2.047990893131189 2.5388702260577785 -4.641954476743395
| 38> H -2.4758109715845813 3.429384355714743 -2.558631074896377
| 39> H -1.5928673897489565 1.6548154511307491 -6.321706884047162
| 40> H -2.6725155380660235 3.446979068259201 -4.922477480286081
| 41> C 1.9765448170686226 -2.602144200720292 3.192818819127218
| 42> C 0.7193648225617881 -0.5490542415725896 4.535877920824787
| 43> C 2.0596246189785923 -2.567099597147317 4.551279174963932
| 44> H 2.4997167049350377 -3.442690512286168 2.7512415960401437
| 45> C 1.4328497752699105 -1.5392341097600484 5.257192221289817
| 46> H 0.18676004768251622 0.30428906164530495 4.965426144898608
| 47> H 2.5534090480959066 -3.2242924905334753 5.288559365213214
| 48> H 1.3527730954315287 -1.2915619015455626 6.333703671741331
| 49> *
| 50>
| 51> % eprnmr
| 52> gtensor true
| 53> Nuclei = all H {aiso,adip,aorb,fgrad,rho}
| 54> Nuclei = all Cu {aiso,adip,aorb,fgrad,rho}
| 55> end
| 56>
| 57>                          ****END OF INPUT****

CARTESIAN COORDINATES (ANGSTROEM)
---------------------------------
  Cu     0.000062    0.000050    0.000000
  S     -2.193965    0.744438    0.000000
  C     -2.093992    2.506165    0.000000
  S     -0.682695   -2.213313    0.000000
  C      0.803543   -3.186216    0.000000
  S      0.682610    2.216072    0.000000
  C     -0.796243    3.094086    0.000000
  S      2.196003   -0.746140    0.000000
  C      2.026568   -2.444158    0.000000
  C      3.272171   -3.296401    0.000000
  C      0.786027   -4.486184    0.000000
  C      1.869023   -5.281725    0.000000
  H     -0.120846   -5.082151    0.000000
  C      3.146707   -4.720816    0.000000
  H      4.170090   -2.654667    0.000000
  H      2.122340   -6.382420    0.000000
  H      4.242364   -5.025648    0.000000
  C     -3.191261    3.269225    0.000000
  C     -0.756951    4.562911    0.000000
  C     -3.178616    4.630616    0.000000
  H     -4.190224    2.848167    0.000000
  C     -1.960621    5.311905    0.000000
  H      0.257626    4.971575    0.000000
  H     -3.983099    5.386998    0.000000
  H     -1.686754    6.385045    0.000000

 Total Charge           Charge          ....   -2
 Multiplicity           Mult            ....    2
 Number of Electrons    NEL             ....  175
 Basis Dimension        Dim             ....  475

ORBITAL ENERGIES
----------------
                 SPIN UP ORBITALS
  NO   OCC          E(Eh)            E(eV)    Irrep
   0   1.0000    -318.182642     -8658.1899    1-A'
   1   1.0000     -88.020868     -2395.1696    2-A'
   2   1.0000     -88.018736     -2395.1116    3-A'
   3   1.0000     -88.012430     -2394.9400    4-A'
   4   1.0000     -88.010990     -2394.9008    5-A'
   5   1.0000     -38.027821     -1034.7896    6-A'
   6   1.0000     -33.530961      -912.4238    7-A'
   7   1.0000     -33.530110      -912.4007    8-A'
   8   1.0000     -33.516344      -912.0261    1-A"
   9   1.0000      -9.839491      -267.7462    9-A'
  10   1.0000      -9.837331      -267.6874   10-A'
  11   1.0000      -9.831604      -267.5316   11-A'
  12   1.0000      -9.828989      -267.4604   12-A'
  13   1.0000      -9.828369      -267.4435   13-A'
  14   1.0000      -9.827734      -267.4262   14-A'
  15   1.0000      -9.826526      -267.3934   15-A'
  16   1.0000      -9.825959      -267.3779   16-A'
  17   1.0000      -9.822152      -267.2743   17-A'
  18   1.0000      -9.820363      -267.2257   18-A'
  19   1.0000      -9.814354      -267.0622   19-A'
  20   1.0000      -9.812206      -267.0037   20-A'
  21   1.0000      -7.589975      -206.5337   21-A'
  22   1.0000      -7.587729      -206.4726   22-A'
  23   1.0000      -7.580836      -206.2850   23-A'
  24   1.0000      -7.579315      -206.2437   24-A'
  25   1.0000      -5.512928      -150.0144   25-A'
  26   1.0000      -5.510763      -149.9555   26-A'
  27   1.0000      -5.507753      -149.8736   27-A'
  28   1.0000      -5.506319      -149.8345    2-A"
  29   1.0000      -5.505566      -149.8141   28-A'
  30   1.0000      -5.504209      -149.7772   29-A'
  31   1.0000      -5.503963      -149.7704    3-A"
  32   1.0000      -5.502746      -149.7373   30-A'
  33   1.0000      -5.498834      -149.6309   31-A'
  34   1.0000      -5.497348      -149.5904   32-A'
  35   1.0000      -5.496734      -149.5737    4-A"
  36   1.0000      -5.495139      -149.5303    5-A"
  37   1.0000      -4.025410      -109.5370   33-A'
  38   1.0000      -2.546846       -69.3032   34-A'
  39   1.0000      -2.545309       -69.2614   35-A'
  40   1.0000      -2.517892       -68.5153    6-A"
  41   1.0000      -0.595093       -16.1933   36-A'
  42   1.0000      -0.592191       -16.1143   37-A'
  43   1.0000      -0.506249       -13.7757   38-A'
  44   1.0000      -0.504955       -13.7405   39-A'
  45   1.0000      -0.491367       -13.3708   40-A'
  46   1.0000      -0.490848       -13.3566   41-A'
  47   1.0000      -0.412552       -11.2261   42-A'
  48   1.0000      -0.409594       -11.1456   43-A'
  49   1.0000      -0.387629       -10.5479   44-A'
  50   1.0000      -0.381202       -10.3730   45-A'
  51   1.0000      -0.324915        -8.8414   46-A'
  52   1.0000      -0.321858        -8.7582   47-A'
  53   1.0000      -0.298712        -8.1284   48-A'
  54   1.0000      -0.294923        -8.0253   49-A'
  55   1.0000      -0.231128        -6.2893   50-A'
  56   1.0000      -0.225543        -6.1373   51-A'
  57   1.0000      -0.214897        -5.8476   52-A'
  58   1.0000      -0.205891        -5.6026   53-A'
  59   1.0000      -0.166274        -4.5246   54-A'
  60   1.0000      -0.159874        -4.3504   55-A'
  61   1.0000      -0.140961        -3.8357   56-A'
  62   1.0000      -0.132215        -3.5978   57-A'
  63   1.0000      -0.127294        -3.4639   58-A'
  64   1.0000      -0.121395        -3.3033    7-A"
  65   1.0000      -0.119207        -3.2438    8-A"
  66   1.0000      -0.107784        -2.9329   59-A'
  67   1.0000      -0.081366        -2.2141   60-A'
  68   1.0000      -0.066926        -1.8211   61-A'
  69   1.0000      -0.064249        -1.7483   62-A'
  70   1.0000      -0.057610        -1.5677   63-A'
  71   1.0000      -0.040801        -1.1103    9-A"
  72   1.0000      -0.039262        -1.0684   10-A"
  73   1.0000      -0.032696        -0.8897   64-A'
  74   1.0000      -0.027196        -0.7400   11-A"
  75   1.0000      -0.026442        -0.7195   65-A'
  76   1.0000      -0.020539        -0.5589   12-A"
  77   1.0000      -0.004065        -0.1106   13-A"
  78   1.0000      -0.001545        -0.0420   66-A'
  79   1.0000       0.000390         0.0106   14-A"
  80   1.0000       0.017283         0.4703   67-A'
  81   1.0000       0.020401         0.5551   68-A'
  82   1.0000       0.034200         0.9306   69-A'
  83   1.0000       0.049218         1.3393   15-A"
  84   1.0000       0.051275         1.3953   16-A"
  85   1.0000       0.062205         1.6927   17-A"
  86   1.0000       0.087011         2.3677   18-A"
  87   1.0000       0.103892         2.8271   70-A'
  88   0.0000       0.181095         4.9279   71-A'
  89   0.0000       0.181320         4.9340   72-A'
  90   0.0000       0.196476         5.3464   73-A'
  91   0.0000       0.196630         5.3506   74-A'
  92   0.0000       0.196931         5.3588   19-A"

                 SPIN DOWN ORBITALS
  NO   OCC          E(Eh)            E(eV)    Irrep
   0   1.0000    -318.182468     -8658.1851    1-A'
   1   1.0000     -88.019821     -2395.1411    2-A'
   2   1.0000     -88.017682     -2395.0829    3-A'
   3   1.0000     -88.011343     -2394.9104    4-A'
   4   1.0000     -88.009904     -2394.8712    5-A'
   5   1.0000     -38.011965     -1034.3582    6-A'
   6   1.0000     -33.515814      -912.0117    7-A'
   7   1.0000     -33.514995      -911.9894    8-A'
   8   1.0000     -33.512022      -911.9085    1-A"
   9   1.0000      -9.839603      -267.7492    9-A'
  10   1.0000      -9.837442      -267.6904   10-A'
  11   1.0000      -9.831571      -267.5306   11-A'
  12   1.0000      -9.829105      -267.4635   12-A'
  13   1.0000      -9.828354      -267.4431   13-A'
  14   1.0000      -9.827706      -267.4255   14-A'
  15   1.0000      -9.826639      -267.3965   15-A'
  16   1.0000      -9.825941      -267.3775   16-A'
  17   1.0000      -9.822074      -267.2722   17-A'
  18   1.0000      -9.820294      -267.2238   18-A'
  19   1.0000      -9.814304      -267.0608   19-A'
  20   1.0000      -9.812160      -267.0024   20-A'
  21   1.0000      -7.589255      -206.5141   21-A'
  22   1.0000      -7.587008      -206.4530   22-A'
  23   1.0000      -7.580097      -206.2649   23-A'
  24   1.0000      -7.578580      -206.2236   24-A'
  25   1.0000      -5.512010      -149.9894   25-A'
  26   1.0000      -5.509846      -149.9305   26-A'
  27   1.0000      -5.505565      -149.8141   27-A'
  28   1.0000      -5.505512      -149.8126    2-A"
  29   1.0000      -5.503363      -149.7541   28-A'
  30   1.0000      -5.503266      -149.7515   29-A'
  31   1.0000      -5.503155      -149.7485    3-A"
  32   1.0000      -5.501810      -149.7119   30-A'
  33   1.0000      -5.496558      -149.5689   31-A'
  34   1.0000      -5.495914      -149.5514    4-A"
  35   1.0000      -5.495075      -149.5286   32-A'
  36   1.0000      -5.494323      -149.5081    5-A"
  37   1.0000      -3.991709      -108.6199   33-A'
  38   1.0000      -2.506188       -68.1969    6-A"
  39   1.0000      -2.504830       -68.1599   34-A'
  40   1.0000      -2.503265       -68.1173   35-A'
  41   1.0000      -0.594758       -16.1842   36-A'
  42   1.0000      -0.591839       -16.1048   37-A'
  43   1.0000      -0.504871       -13.7382   38-A'
  44   1.0000      -0.503668       -13.7055   39-A'
  45   1.0000      -0.490271       -13.3410   40-A'
  46   1.0000      -0.489795       -13.3280   41-A'
  47   1.0000      -0.408913       -11.1271   42-A'
  48   1.0000      -0.405753       -11.0411   43-A'
  49   1.0000      -0.384232       -10.4555   44-A'
  50   1.0000      -0.377891       -10.2829   45-A'
  51   1.0000      -0.323645        -8.8068   46-A'
  52   1.0000      -0.320277        -8.7152   47-A'
  53   1.0000      -0.296881        -8.0785   48-A'
  54   1.0000      -0.292666        -7.9638   49-A'
  55   1.0000      -0.230497        -6.2721   50-A'
  56   1.0000      -0.224799        -6.1171   51-A'
  57   1.0000      -0.214163        -5.8277   52-A'
  58   1.0000      -0.205107        -5.5812   53-A'
  59   1.0000      -0.165586        -4.5058   54-A'
  60   1.0000      -0.159240        -4.3331   55-A'
  61   1.0000      -0.139833        -3.8050   56-A'
  62   1.0000      -0.129556        -3.5254   57-A'
  63   1.0000      -0.125935        -3.4269   58-A'
  64   1.0000      -0.121250        -3.2994    7-A"
  65   1.0000      -0.119037        -3.2392    8-A"
  66   1.0000      -0.106809        -2.9064   59-A'
  67   1.0000      -0.080167        -2.1815   60-A'
  68   1.0000      -0.064309        -1.7499   61-A'
  69   1.0000      -0.061092        -1.6624   62-A'
  70   1.0000      -0.045110        -1.2275   63-A'
  71   1.0000      -0.038905        -1.0587    9-A"
  72   1.0000      -0.038031        -1.0349   10-A"
  73   1.0000      -0.024262        -0.6602   11-A"
  74   1.0000      -0.020355        -0.5539   64-A'
  75   1.0000      -0.019765        -0.5378   12-A"
  76   1.0000      -0.004300        -0.1170   65-A'
  77   1.0000       0.005686         0.1547   13-A"
  78   1.0000       0.009179         0.2498   66-A'
  79   1.0000       0.012684         0.3452   14-A"
  80   1.0000       0.027077         0.7368   67-A'
  81   1.0000       0.032751         0.8912   68-A'
  82   1.0000       0.042615         1.1596   69-A'
  83   1.0000       0.052011         1.4153   15-A"
  84   1.0000       0.056806         1.5458   16-A"
  85   1.0000       0.064056         1.7430   17-A"
  86   1.0000       0.091135         2.4799   18-A"
  87   0.0000       0.136890         3.7250   70-A'
  88   0.0000       0.182149         4.9565   71-A'
  89   0.0000       0.182293         4.9605   72-A'
  90   0.0000       0.197061         5.3623   19-A"
  91   0.0000       0.198216         5.3937   73-A'

MULLIKEN ATOMIC CHARGES AND SPIN POPULATIONS
--------------------------------------------
   0 Cu:    0.140170    0.375050
   1 S :   -0.447162    0.167328
   2 C :    0.005400   -0.008028
   3 S :   -0.459228    0.167494
   4 C :   -0.006490   -0.007852
   5 S :   -0.400903    0.159154
   6 C :    0.032553   -0.007434
   7 S :   -0.385785    0.157250
   8 C :    0.033961   -0.007770
   9 C :   -0.105611   -0.001129
  10 C :   -0.055353   -0.000925
  11 C :   -0.148573   -0.001259
  12 H :    0.051074    0.001398
  13 C :   -0.099044   -0.000382
  14 H :    0.074874    0.002706
  15 H :    0.010351    0.000765
  16 H :    0.018655    0.001757
  17 C :   -0.076527   -0.001333
  18 C :   -0.098237   -0.001412
  19 C :   -0.150174   -0.001080
  20 H :    0.057986    0.001657
  21 C :   -0.114844   -0.000601
  22 H :    0.071177    0.002337
  23 H :    0.023644    0.000857
  24 H :    0.028087    0.001450
Sum of atomic charges         :   -2.0000000

LOEWDIN ATOMIC CHARGES AND SPIN POPULATIONS
-------------------------------------------
   0 Cu:   -0.892323    0.441706
   1 S :    0.001833    0.127298
   2 C :   -0.048536    0.005169
   3 S :   -0.003045    0.127528
   4 C :   -0.052660    0.005081
   5 S :    0.019737    0.121185
   6 C :   -0.027231    0.005068
   7 S :    0.028523    0.119797
   8 C :   -0.018845    0.005040
   9 C :    0.333175    0.004283
  10 C :    0.254901    0.003653
  11 C :    0.289600   -0.000515
  12 H :   -0.431588    0.005629
  13 C :    0.301602    0.000387
  14 H :   -0.458287    0.007331
  15 H :   -0.400845    0.000115
  16 H :   -0.398487    0.000513
  17 C :    0.276272    0.003756
  18 C :    0.327124    0.004086
  19 C :    0.301026   -0.000361
  20 H :   -0.436672    0.005793
  21 C :    0.310174    0.000162
  22 H :   -0.454988    0.006800
  23 H :   -0.410463    0.000135
  24 H :   -0.409997    0.000360

  Mayer bond orders larger than 0.100000
B(  0-Cu,  1-S ) :   0.7134 B(  0-Cu,  3-S ) :   0.7159 B(  0-Cu,  5-S ) :   0.6905
B(  0-Cu,  7-S ) :   0.6852 B(  1-S ,  2-C ) :   1.1569 B(  2-C ,  6-C ) :   1.2419
B(  2-C , 17-C ) :   1.3371 B(  3-S ,  4-C ) :   1.1421 B(  4-C ,  8-C ) :   1.2376
B(  4-C , 10-C ) :   1.3479 B(  5-S ,  6-C ) :   1.2163 B(  6-C , 18-C ) :   1.2988
B(  7-S ,  8-C ) :   1.2392 B(  8-C ,  9-C ) :   1.2860 B(  9-C , 13-C ) :   1.3725
B(  9-C , 14-H ) :   0.9522 B( 10-C , 11-C ) :   1.3444 B( 10-C , 12-H ) :   0.9764
B( 11-C , 13-C ) :   1.3294 B( 11-C , 15-H ) :   0.9876 B( 13-C , 16-H ) :   0.9719
B( 17-C , 19-C ) :   1.3535 B( 17-C , 20-H ) :   0.9747 B( 18-C , 21-C ) :   1.3697
B( 18-C , 22-H ) :   0.9613 B( 19-C , 21-C ) :   1.3354 B( 19-C , 23-H ) :   0.9882
B( 21-C , 24-H ) :   0.9792

FINAL SINGLE POINT ENERGY     -3686.850206941204

DIPOLE MOMENT
-------------
                                X             Y             Z
Electronic contribution:     -0.60544      -0.24930      -0.00000
Nuclear contribution   :      0.76095       0.41898       0.00000
                        -----------------------------------------
Total Dipole Moment    :      0.15551       0.16968      -0.00000
                        -----------------------------------------
Magnitude (a.u.)       :      0.23016
Magnitude (Debye)      :      0.58503

Rotational constants in cm-1:     0.033401     0.004804     0.004200
Rotational constants in MHz :  1001.343275   144.016590   125.908065

                             ****ORCA TERMINATED NORMALLY****
TOTAL RUN TIME: 0 days 5 hours 52 minutes 20 seconds 539 msec
