                         Program Version 5.0.4 -  RELEASE  -
|  1> ! RIJCOSX nofrozencore ReducedPop printbasis
|  2> ! M06L ano-rcc-dzp autoaux
|  3>
|  4> %maxcore 5000
|  5> %basis
|  6> PCDTrimBas overlap
|  7> PCDTrimAuxJ Coulomb
|  8> PCDTrimAuxJK Coulomb
|  9> PCDTrimAuxC Coulomb
| 10> PCDThresh -1
| 11> end
| 12>
| 13> %basis
| 14> newgto Cu "ano-rcc-tzp" end
| 15> newgto S "ano-rcc-tzp" end
| 16> end
| 17>
| 18> %pal
| 19> nprocs 12
| 20> end
| 21>
| 22> % sym SymThresh 1e-2 end
| 23> * xyz -2 2
| 24> Cu 0.00115406990848709 0.0016343798987641207 5.3338474297475545e-05
| 25> S 1.0767337632761032 1.0908352031472561 -1.7506485846668274
| 26> C 0.7260933809705927 0.26988282780550216 -3.1124476787781346
| 27> S 0.7841508901457404 1.489796644173845 1.609620796549918
| 28> C 0.20457012258992738 1.0171783534382253 3.027143336075324
| 29> S -0.8176184607329046 -1.5188454660538562 -1.5350582084619464
| 30> C -0.09933061806978907 -0.8943117592897849 -3.130847559517372
| 31> S -1.0976234988283606 -1.136769058962482 1.6818596994563313
| 32> C -0.635179198250435 -0.12149622994365966 3.198099635208292
| 33> C -1.16059523754275 -0.5577822808533527 4.45064097580069
| 34> C 0.4554515140435735 1.65745417971995 4.220896405003122
| 35> C -0.10142254908997801 1.1571183921022163 5.391096899415542
| 36> H 1.077332568217395 2.554624254879069 4.317957675974797
| 37> C -0.9353165605035838 0.05750779488893604 5.689971402359133
| 38> H -1.7797866051885436 -1.4566474117611892 4.330871645436154
| 39> H 0.20404317228945254 1.7888734431255324 6.231356451957893
| 40> H -1.2904189284661898 -0.20151726647634888 6.685168051098496
| 41> C 1.1950854280242764 0.6272885841521092 -4.363337914741589
| 42> C -0.41003991527140476 -1.6169404778724463 -4.317515133439007
| 43> C 0.8431261348182201 -0.13416975508389062 -5.470656413869931
| 44> H 1.8402298402825297 1.4922007220636404 -4.535677775163541
| 45> C 0.04545725441959793 -1.2854010260074624 -5.597050283548433
| 46> H -1.056259287311835 -2.478742868178746 -4.126010087385331
| 47> H 1.2872691219157195 0.26997618010605673 -6.382828082769241
| 48> H -0.15029979571347074 -1.7880114921001475 -6.541019848483285
| 49> *
| 50>
| 51> % eprnmr
| 52> gtensor true
| 53> Nuclei = all H {aiso,adip,aorb,fgrad,rho}
| 54> Nuclei = all Cu {aiso,adip,aorb,fgrad,rho}
| 55> end
| 56>
| 57>                          ****END OF INPUT****

CARTESIAN COORDINATES (ANGSTROEM)
---------------------------------
  Cu     0.002001   -0.000044    0.000000
  S      1.424481   -1.839810    0.000000
  C      0.485870   -3.170380    0.000000
  S      1.746228    1.541413    0.000000
  C      1.096231    3.006389    0.000000
  S     -1.785554   -1.464101    0.000000
  C     -0.940440   -3.118884    0.000000
  S     -1.477367    1.772868    0.000000
  C     -0.308223    3.248239    0.000000
  C     -0.905463    4.543836    0.000000
  C      1.821714    4.177549    0.000000
  C      1.150055    5.393562    0.000000
  H      2.916752    4.221856    0.000000
  C     -0.212881    5.762689    0.000000
  H     -2.001448    4.476619    0.000000
  H      1.882697    6.207009    0.000000
  H     -0.579993    6.786816    0.000000
  C      0.986325   -4.459551    0.000000
  C     -1.767235   -4.277902    0.000000
  C      0.107975   -5.535818    0.000000
  H      2.055234   -4.686309    0.000000
  C     -1.297064   -5.594543    0.000000
  H     -2.833286   -4.031910    0.000000
  H      0.648861   -6.484552    0.000000
  H     -1.866218   -6.520870    0.000000

 Total Charge           Charge          ....   -2
 Multiplicity           Mult            ....    2
 Number of Electrons    NEL             ....  175
 Basis Dimension        Dim             ....  475

ORBITAL ENERGIES
----------------
                 SPIN UP ORBITALS
  NO   OCC          E(Eh)            E(eV)    Irrep
   0   1.0000    -318.181687     -8658.1639    1-A'
   1   1.0000     -88.014815     -2395.0049    2-A'
   2   1.0000     -88.014541     -2394.9974    3-A'
   3   1.0000     -88.014065     -2394.9845    4-A'
   4   1.0000     -88.013740     -2394.9756    5-A'
   5   1.0000     -38.026778     -1034.7612    6-A'
   6   1.0000     -33.529866      -912.3940    7-A'
   7   1.0000     -33.529018      -912.3710    8-A'
   8   1.0000     -33.515466      -912.0022    1-A"
   9   1.0000      -9.834881      -267.6207    9-A'
  10   1.0000      -9.834689      -267.6155   10-A'
  11   1.0000      -9.831685      -267.5338   11-A'
  12   1.0000      -9.829839      -267.4835   12-A'
  13   1.0000      -9.829592      -267.4768   13-A'
  14   1.0000      -9.828063      -267.4352   14-A'
  15   1.0000      -9.823728      -267.3172   15-A'
  16   1.0000      -9.823683      -267.3160   16-A'
  17   1.0000      -9.823148      -267.3015   17-A'
  18   1.0000      -9.822142      -267.2741   18-A'
  19   1.0000      -9.815984      -267.1065   19-A'
  20   1.0000      -9.815801      -267.1015   20-A'
  21   1.0000      -7.586938      -206.4511   21-A'
  22   1.0000      -7.586278      -206.4331   22-A'
  23   1.0000      -7.581219      -206.2955   23-A'
  24   1.0000      -7.580632      -206.2795   24-A'
  25   1.0000      -5.509200      -149.9129   25-A'
  26   1.0000      -5.508694      -149.8992   26-A'
  27   1.0000      -5.505070      -149.8006   27-A'
  28   1.0000      -5.504572      -149.7870   28-A'
  29   1.0000      -5.504229      -149.7777   29-A'
  30   1.0000      -5.503689      -149.7630   30-A'
  31   1.0000      -5.503418      -149.7556    2-A"
  32   1.0000      -5.502706      -149.7363    3-A"
  33   1.0000      -5.499526      -149.6497   31-A'
  34   1.0000      -5.498989      -149.6351   32-A'
  35   1.0000      -5.496911      -149.5785    4-A"
  36   1.0000      -5.496265      -149.5610    5-A"
  37   1.0000      -4.024417      -109.5100   33-A'
  38   1.0000      -2.545739       -69.2731   34-A'
  39   1.0000      -2.544205       -69.2313   35-A'
  40   1.0000      -2.517168       -68.4956    6-A"
  41   1.0000      -0.593659       -16.1543   36-A'
  42   1.0000      -0.591894       -16.1063   37-A'
  43   1.0000      -0.520345       -14.1593   38-A'
  44   1.0000      -0.516390       -14.0517   39-A'
  45   1.0000      -0.479469       -13.0470   40-A'
  46   1.0000      -0.476593       -12.9688   41-A'
  47   1.0000      -0.421026       -11.4567   42-A'
  48   1.0000      -0.417357       -11.3569   43-A'
  49   1.0000      -0.379003       -10.3132   44-A'
  50   1.0000      -0.370597       -10.0845   45-A'
  51   1.0000      -0.320248        -8.7144   46-A'
  52   1.0000      -0.318055        -8.6547   47-A'
  53   1.0000      -0.301270        -8.1980   48-A'
  54   1.0000      -0.297744        -8.1020   49-A'
  55   1.0000      -0.235778        -6.4158   50-A'
  56   1.0000      -0.230976        -6.2852   51-A'
  57   1.0000      -0.189656        -5.1608   52-A'
  58   1.0000      -0.187948        -5.1143   53-A'
  59   1.0000      -0.175602        -4.7784   54-A'
  60   1.0000      -0.171287        -4.6610   55-A'
  61   1.0000      -0.161868        -4.4046   56-A'
  62   1.0000      -0.154190        -4.1957   57-A'
  63   1.0000      -0.120180        -3.2703    7-A"
  64   1.0000      -0.118884        -3.2350    8-A"
  65   1.0000      -0.109411        -2.9772   58-A'
  66   1.0000      -0.093512        -2.5446   59-A'
  67   1.0000      -0.089391        -2.4324   60-A'
  68   1.0000      -0.078126        -2.1259   61-A'
  69   1.0000      -0.062774        -1.7082   62-A'
  70   1.0000      -0.049543        -1.3481   63-A'
  71   1.0000      -0.047593        -1.2951    9-A"
  72   1.0000      -0.045218        -1.2304   10-A"
  73   1.0000      -0.029486        -0.8024   64-A'
  74   1.0000      -0.028697        -0.7809   65-A'
  75   1.0000      -0.019034        -0.5179   11-A"
  76   1.0000      -0.014368        -0.3910   12-A"
  77   1.0000      -0.002162        -0.0588   13-A"
  78   1.0000      -0.000448        -0.0122   66-A'
  79   1.0000       0.003085         0.0839   14-A"
  80   1.0000       0.018138         0.4936   67-A'
  81   1.0000       0.019020         0.5176   68-A'
  82   1.0000       0.034796         0.9468   69-A'
  83   1.0000       0.048783         1.3274   15-A"
  84   1.0000       0.050841         1.3835   16-A"
  85   1.0000       0.063260         1.7214   17-A"
  86   1.0000       0.088073         2.3966   18-A"
  87   1.0000       0.105212         2.8630   70-A'
  88   0.0000       0.180239         4.9045   71-A'
  89   0.0000       0.180562         4.9133   72-A'
  90   0.0000       0.197510         5.3745   73-A'
  91   0.0000       0.197898         5.3851   74-A'
  92   0.0000       0.198654         5.4057   19-A"

                 SPIN DOWN ORBITALS
  NO   OCC          E(Eh)            E(eV)    Irrep
   0   1.0000    -318.181516     -8658.1592    1-A'
   1   1.0000     -88.013618     -2394.9723    2-A'
   2   1.0000     -88.013344     -2394.9648    3-A'
   3   1.0000     -88.013115     -2394.9586    4-A'
   4   1.0000     -88.012788     -2394.9497    5-A'
   5   1.0000     -38.011060     -1034.3335    6-A'
   6   1.0000     -33.514848      -911.9854    7-A'
   7   1.0000     -33.514032      -911.9632    8-A'
   8   1.0000     -33.511182      -911.8856    1-A"
   9   1.0000      -9.834991      -267.6237    9-A'
  10   1.0000      -9.834794      -267.6184   10-A'
  11   1.0000      -9.831664      -267.5332   11-A'
  12   1.0000      -9.829815      -267.4829   12-A'
  13   1.0000      -9.829706      -267.4799   13-A'
  14   1.0000      -9.828178      -267.4383   14-A'
  15   1.0000      -9.823695      -267.3163   15-A'
  16   1.0000      -9.823657      -267.3153   16-A'
  17   1.0000      -9.823125      -267.3008   17-A'
  18   1.0000      -9.822106      -267.2731   18-A'
  19   1.0000      -9.815885      -267.1038   19-A'
  20   1.0000      -9.815687      -267.0984   20-A'
  21   1.0000      -7.586281      -206.4332   21-A'
  22   1.0000      -7.585628      -206.4154   22-A'
  23   1.0000      -7.580403      -206.2733   23-A'
  24   1.0000      -7.579816      -206.2573   24-A'
  25   1.0000      -5.508335      -149.8894   25-A'
  26   1.0000      -5.507843      -149.8760   26-A'
  27   1.0000      -5.504048      -149.7728   27-A'
  28   1.0000      -5.503552      -149.7593   28-A'
  29   1.0000      -5.502683      -149.7356    2-A"
  30   1.0000      -5.502267      -149.7243   29-A'
  31   1.0000      -5.501977      -149.7164    3-A"
  32   1.0000      -5.501729      -149.7097   30-A'
  33   1.0000      -5.496993      -149.5808   31-A'
  34   1.0000      -5.496447      -149.5659   32-A'
  35   1.0000      -5.496009      -149.5540    4-A"
  36   1.0000      -5.495366      -149.5365    5-A"
  37   1.0000      -3.991075      -108.6027   33-A'
  38   1.0000      -2.505561       -68.1798    6-A"
  39   1.0000      -2.504159       -68.1416   34-A'
  40   1.0000      -2.502596       -68.0991   35-A'
  41   1.0000      -0.593170       -16.1410   36-A'
  42   1.0000      -0.591456       -16.0943   37-A'
  43   1.0000      -0.519040       -14.1238   38-A'
  44   1.0000      -0.515113       -14.0169   39-A'
  45   1.0000      -0.478487       -13.0203   40-A'
  46   1.0000      -0.475668       -12.9436   41-A'
  47   1.0000      -0.418083       -11.3766   42-A'
  48   1.0000      -0.414220       -11.2715   43-A'
  49   1.0000      -0.374671       -10.1953   44-A'
  50   1.0000      -0.366272        -9.9668   45-A'
  51   1.0000      -0.319187        -8.6855   46-A'
  52   1.0000      -0.316743        -8.6190   47-A'
  53   1.0000      -0.299428        -8.1479   48-A'
  54   1.0000      -0.295424        -8.0389   49-A'
  55   1.0000      -0.235188        -6.3998   50-A'
  56   1.0000      -0.230172        -6.2633   51-A'
  57   1.0000      -0.188591        -5.1318   52-A'
  58   1.0000      -0.186985        -5.0881   53-A'
  59   1.0000      -0.174969        -4.7611   54-A'
  60   1.0000      -0.170449        -4.6381   55-A'
  61   1.0000      -0.161213        -4.3868   56-A'
  62   1.0000      -0.152767        -4.1570   57-A'
  63   1.0000      -0.119927        -3.2634    7-A"
  64   1.0000      -0.118656        -3.2288    8-A"
  65   1.0000      -0.107896        -2.9360   58-A'
  66   1.0000      -0.092188        -2.5086   59-A'
  67   1.0000      -0.088166        -2.3991   60-A'
  68   1.0000      -0.072674        -1.9776   61-A'
  69   1.0000      -0.060565        -1.6481   62-A'
  70   1.0000      -0.046429        -1.2634    9-A"
  71   1.0000      -0.043911        -1.1949   10-A"
  72   1.0000      -0.037248        -1.0136   63-A'
  73   1.0000      -0.021947        -0.5972   64-A'
  74   1.0000      -0.015381        -0.4185   11-A"
  75   1.0000      -0.011725        -0.3191   12-A"
  76   1.0000      -0.002851        -0.0776   65-A'
  77   1.0000       0.006502         0.1769   13-A"
  78   1.0000       0.010274         0.2796   66-A'
  79   1.0000       0.014077         0.3831   14-A"
  80   1.0000       0.025760         0.7010   67-A'
  81   1.0000       0.033569         0.9135   68-A'
  82   1.0000       0.043012         1.1704   69-A'
  83   1.0000       0.051494         1.4012   15-A"
  84   1.0000       0.055906         1.5213   16-A"
  85   1.0000       0.065603         1.7851   17-A"
  86   1.0000       0.092331         2.5124   18-A"
  87   0.0000       0.137885         3.7521   70-A'
  88   0.0000       0.181585         4.9412   71-A'
  89   0.0000       0.181876         4.9491   72-A'
  90   0.0000       0.198825         5.4103   19-A"
  91   0.0000       0.199029         5.4159   73-A'

MULLIKEN ATOMIC CHARGES AND SPIN POPULATIONS
--------------------------------------------
   0 Cu:    0.139620    0.371848
   1 S :   -0.390675    0.142300
   2 C :    0.065857   -0.008152
   3 S :   -0.376786    0.141690
   4 C :    0.075034   -0.008637
   5 S :   -0.442419    0.184625
   6 C :   -0.017140   -0.007595
   7 S :   -0.449409    0.185662
   8 C :   -0.023549   -0.007484
   9 C :   -0.059147   -0.002446
  10 C :   -0.099034    0.001234
  11 C :   -0.051898   -0.000387
  12 H :    0.031742    0.000970
  13 C :   -0.243500   -0.001129
  14 H :    0.079245    0.002780
  15 H :    0.050599    0.001316
  16 H :   -0.002938    0.000884
  17 C :   -0.100857    0.000598
  18 C :   -0.063987   -0.002552
  19 C :   -0.062404   -0.000603
  20 H :    0.037225    0.001118
  21 C :   -0.226319   -0.000960
  22 H :    0.078528    0.002737
  23 H :    0.050532    0.001238
  24 H :    0.001682    0.000944
Sum of atomic charges         :   -2.0000000

LOEWDIN ATOMIC CHARGES AND SPIN POPULATIONS
-------------------------------------------
   0 Cu:   -0.889332    0.438776
   1 S :    0.042132    0.106948
   2 C :   -0.119816    0.007344
   3 S :    0.052529    0.106524
   4 C :   -0.140448    0.008062
   5 S :   -0.010339    0.141792
   6 C :    0.029967    0.002781
   7 S :   -0.011581    0.142090
   8 C :    0.041221    0.002163
   9 C :    0.296298    0.003281
  10 C :    0.304523    0.005200
  11 C :    0.310421    0.000003
  12 H :   -0.410518    0.003873
  13 C :    0.323471   -0.000206
  14 H :   -0.474911    0.009477
  15 H :   -0.449929    0.000402
  16 H :   -0.397476    0.000017
  17 C :    0.305554    0.004773
  18 C :    0.299167    0.003423
  19 C :    0.310452   -0.000095
  20 H :   -0.416956    0.004111
  21 C :    0.320071   -0.000117
  22 H :   -0.469881    0.008959
  23 H :   -0.444344    0.000341
  24 H :   -0.400274    0.000079

  Mayer bond orders larger than 0.100000
B(  0-Cu,  1-S ) :   0.6721 B(  0-Cu,  3-S ) :   0.6641 B(  0-Cu,  5-S ) :   0.7263
B(  0-Cu,  7-S ) :   0.7319 B(  1-S ,  2-C ) :   1.2916 B(  2-C ,  6-C ) :   1.2345
B(  2-C , 17-C ) :   1.2688 B(  3-S ,  4-C ) :   1.3212 B(  4-C ,  8-C ) :   1.2291
B(  4-C , 10-C ) :   1.2562 B(  5-S ,  6-C ) :   1.1030 B(  6-C , 18-C ) :   1.3583
B(  7-S ,  8-C ) :   1.0886 B(  8-C ,  9-C ) :   1.3653 B(  9-C , 13-C ) :   1.3340
B(  9-C , 14-H ) :   0.9594 B( 10-C , 11-C ) :   1.3757 B( 10-C , 12-H ) :   0.9916
B( 11-C , 13-C ) :   1.3217 B( 11-C , 15-H ) :   0.9751 B( 13-C , 16-H ) :   1.0200
B( 17-C , 19-C ) :   1.3744 B( 17-C , 20-H ) :   0.9880 B( 18-C , 21-C ) :   1.3402
B( 18-C , 22-H ) :   0.9597 B( 19-C , 21-C ) :   1.3269 B( 19-C , 23-H ) :   0.9750
B( 21-C , 24-H ) :   1.0150

FINAL SINGLE POINT ENERGY     -3686.860450723432

DIPOLE MOMENT
-------------
                                X             Y             Z
Electronic contribution:      0.15564      -0.02381      -0.00000
Nuclear contribution   :      0.20112      -0.02947       0.00000
                        -----------------------------------------
Total Dipole Moment    :      0.35676      -0.05328      -0.00000
                        -----------------------------------------
Magnitude (a.u.)       :      0.36072
Magnitude (Debye)      :      0.91688

Rotational constants in cm-1:     0.033392     0.004802     0.004198
Rotational constants in MHz :  1001.062769   143.962862   125.862563

                             ****ORCA TERMINATED NORMALLY****
TOTAL RUN TIME: 0 days 6 hours 25 minutes 58 seconds 289 msec
