                         Program Version 5.0.4 -  RELEASE  -
|  1> ! RIJCOSX nofrozencore ReducedPop printbasis
|  2> ! M06L ano-rcc-dzp autoaux
|  3>
|  4> %maxcore 5000
|  5> %basis
|  6> PCDTrimBas overlap
|  7> PCDTrimAuxJ Coulomb
|  8> PCDTrimAuxJK Coulomb
|  9> PCDTrimAuxC Coulomb
| 10> PCDThresh -1
| 11> end
| 12>
| 13> %basis
| 14> newgto Cu "ano-rcc-tzp" end
| 15> newgto S "ano-rcc-tzp" end
| 16> end
| 17>
| 18> %pal
| 19> nprocs 12
| 20> end
| 21>
| 22> % sym SymThresh 1e-2 end
| 23> * xyz -2 2
| 24> Cu -0.002968667496112359 0.007038297282849899 -0.0028200818526691214
| 25> S -0.701843845581093 0.8914115880991809 -2.1479600867344906
| 26> C -0.4664278493560717 -0.39095376330914433 -3.3128853722849345
| 27> S -0.4511114332790388 1.9299952665662534 1.221262881226965
| 28> C -0.04533285028771001 1.6410203370320762 2.897206105083987
| 29> S 0.4516579468277112 -1.928303082462657 -1.2150032076811121
| 30> C 0.0485892768192905 -1.6476521420712331 -2.8920311464206705
| 31> S 0.700551806679522 -0.8913122421669459 2.14103820470266
| 32> C 0.4692981976575223 0.3835098070062008 3.3143873573674925
| 33> C 0.7762169488417275 0.21753842946418747 4.682882350934635
| 34> C -0.2252585086432502 2.6541868412094263 3.850948334075329
| 35> C 0.08477678809471365 2.467213741097765 5.1962980269764865
| 36> H -0.6193321944268331 3.6069787585461577 3.5120650197048264
| 37> C 0.5892512198369521 1.2375243126320157 5.611015810306216
| 38> H 1.1695644315493379 -0.741524126458555 5.0057638127306365
| 39> H -0.06755472256040998 3.2744574468634435 5.906875952687116
| 40> H 0.8386037422159873 1.067296697914017 6.654982616382268
| 41> C -0.772130916355686 -0.2264919340834978 -4.677581889204276
| 42> C 0.2271764627502031 -2.659312913144283 -3.8502480580138436
| 43> C -0.5871564696406258 -1.2433099403702081 -5.610584878420591
| 44> H -1.1655256703572134 0.7329664219353338 -4.999940642947242
| 45> C -0.08220519938141849 -2.473163571883036 -5.1935850251120765
| 46> H 0.6212997689411366 -3.6127013556888152 -3.512241676076105
| 47> H -0.8369281522319154 -1.0715337430005387 -6.653880214849223
| 48> H 0.07059032873149629 -3.2812766397188238 -5.903279722998236
| 49> *
| 50>
| 51> % eprnmr
| 52> gtensor true
| 53> Nuclei = all H {aiso,adip,aorb,fgrad,rho}
| 54> Nuclei = all Cu {aiso,adip,aorb,fgrad,rho}
| 55> end
| 56>
| 57>                          ****END OF INPUT****

CARTESIAN COORDINATES (ANGSTROEM)
---------------------------------
  Cu     0.007535   -0.003085    0.000000
  S      1.008095   -2.210130    0.000000
  C     -0.314553   -3.353605    0.000000
  S      2.006573    1.180478    0.000000
  C      1.650400    2.892229    0.000000
  S     -2.004969   -1.174172    0.000000
  C     -1.657576   -2.886764    0.000000
  S     -1.007783    2.203095    0.000000
  C      0.306627    3.355363    0.000000
  C      0.089890    4.750910    0.000000
  C      2.694392    3.829556    0.000000
  C      2.456116    5.202244    0.000000
  H      3.713227    3.455491    0.000000
  C      1.141871    5.662006    0.000000
  H     -0.935102    5.108913    0.000000
  H      3.289399    5.898955    0.000000
  H      0.930358    6.727972    0.000000
  C     -0.099527   -4.745245    0.000000
  C     -2.699841   -3.828684    0.000000
  C     -1.148008   -5.661388    0.000000
  H      0.925869   -5.102731    0.000000
  C     -2.462497   -5.199301    0.000000
  H     -3.719281   -3.455491    0.000000
  H     -0.934876   -6.726720    0.000000
  H     -3.296727   -5.895088    0.000000

 Total Charge           Charge          ....   -2
 Multiplicity           Mult            ....    2
 Number of Electrons    NEL             ....  175
 Basis Dimension        Dim             ....  475

ORBITAL ENERGIES
----------------
                 SPIN UP ORBITALS
  NO   OCC          E(Eh)            E(eV)    Irrep
   0   1.0000    -318.181847     -8658.1682    1-A'
   1   1.0000     -88.018443     -2395.1036    2-A'
   2   1.0000     -88.018352     -2395.1011    3-A'
   3   1.0000     -88.017804     -2395.0862    4-A'
   4   1.0000     -88.017694     -2395.0832    5-A'
   5   1.0000     -38.026333     -1034.7491    6-A'
   6   1.0000     -33.529838      -912.3933    7-A'
   7   1.0000     -33.528680      -912.3618    8-A'
   8   1.0000     -33.515437      -912.0014    1-A"
   9   1.0000      -9.837163      -267.6828    9-A'
  10   1.0000      -9.836628      -267.6683   10-A'
  11   1.0000      -9.835806      -267.6459   11-A'
  12   1.0000      -9.835613      -267.6406   12-A'
  13   1.0000      -9.827264      -267.4135   13-A'
  14   1.0000      -9.827174      -267.4110   14-A'
  15   1.0000      -9.826712      -267.3984   15-A'
  16   1.0000      -9.826657      -267.3969   16-A'
  17   1.0000      -9.821249      -267.2498   17-A'
  18   1.0000      -9.820685      -267.2344   18-A'
  19   1.0000      -9.820120      -267.2191   19-A'
  20   1.0000      -9.820014      -267.2162   20-A'
  21   1.0000      -7.586862      -206.4490   21-A'
  22   1.0000      -7.586788      -206.4470   22-A'
  23   1.0000      -7.586014      -206.4259   23-A'
  24   1.0000      -7.585924      -206.4235   24-A'
  25   1.0000      -5.510065      -149.9365   25-A'
  26   1.0000      -5.509989      -149.9344   26-A'
  27   1.0000      -5.509252      -149.9144   27-A'
  28   1.0000      -5.509162      -149.9119   28-A'
  29   1.0000      -5.504775      -149.7925   29-A'
  30   1.0000      -5.504711      -149.7908   30-A'
  31   1.0000      -5.504103      -149.7743   31-A'
  32   1.0000      -5.504011      -149.7717   32-A'
  33   1.0000      -5.502915      -149.7419    2-A"
  34   1.0000      -5.502828      -149.7396    3-A"
  35   1.0000      -5.502088      -149.7194    4-A"
  36   1.0000      -5.501988      -149.7167    5-A"
  37   1.0000      -4.024943      -109.5243   33-A'
  38   1.0000      -2.546647       -69.2978   34-A'
  39   1.0000      -2.544270       -69.2331   35-A'
  40   1.0000      -2.518226       -68.5244    6-A"
  41   1.0000      -0.591269       -16.0892   36-A'
  42   1.0000      -0.591161       -16.0863   37-A'
  43   1.0000      -0.506950       -13.7948   38-A'
  44   1.0000      -0.506226       -13.7751   39-A'
  45   1.0000      -0.490888       -13.3577   40-A'
  46   1.0000      -0.490745       -13.3539   41-A'
  47   1.0000      -0.409882       -11.1534   42-A'
  48   1.0000      -0.408356       -11.1119   43-A'
  49   1.0000      -0.389427       -10.5968   44-A'
  50   1.0000      -0.384895       -10.4735   45-A'
  51   1.0000      -0.323915        -8.8142   46-A'
  52   1.0000      -0.321872        -8.7586   47-A'
  53   1.0000      -0.301427        -8.2023   48-A'
  54   1.0000      -0.299346        -8.1456   49-A'
  55   1.0000      -0.234846        -6.3905   50-A'
  56   1.0000      -0.231034        -6.2868   51-A'
  57   1.0000      -0.191801        -5.2192   52-A'
  58   1.0000      -0.191215        -5.2032   53-A'
  59   1.0000      -0.179414        -4.8821   54-A'
  60   1.0000      -0.177557        -4.8316   55-A'
  61   1.0000      -0.147999        -4.0273   56-A'
  62   1.0000      -0.146292        -3.9808   57-A'
  63   1.0000      -0.131351        -3.5742   58-A'
  64   1.0000      -0.118903        -3.2355    7-A"
  65   1.0000      -0.118835        -3.2337    8-A"
  66   1.0000      -0.118013        -3.2113   59-A'
  67   1.0000      -0.088176        -2.3994   60-A'
  68   1.0000      -0.069458        -1.8900   61-A'
  69   1.0000      -0.068176        -1.8552   62-A'
  70   1.0000      -0.067882        -1.8472   63-A'
  71   1.0000      -0.040964        -1.1147    9-A"
  72   1.0000      -0.039448        -1.0734   10-A"
  73   1.0000      -0.031388        -0.8541   64-A'
  74   1.0000      -0.027546        -0.7496   65-A'
  75   1.0000      -0.025653        -0.6981   11-A"
  76   1.0000      -0.020812        -0.5663   12-A"
  77   1.0000      -0.004139        -0.1126   13-A"
  78   1.0000      -0.001117        -0.0304   66-A'
  79   1.0000      -0.000355        -0.0097   14-A"
  80   1.0000       0.014029         0.3817   67-A'
  81   1.0000       0.016929         0.4607   68-A'
  82   1.0000       0.039502         1.0749   69-A'
  83   1.0000       0.047139         1.2827   15-A"
  84   1.0000       0.049530         1.3478   16-A"
  85   1.0000       0.061464         1.6725   17-A"
  86   1.0000       0.082478         2.2444   18-A"
  87   1.0000       0.095778         2.6063   70-A'
  88   0.0000       0.179952         4.8967   71-A'
  89   0.0000       0.180039         4.8991   72-A'
  90   0.0000       0.195610         5.3228   73-A'
  91   0.0000       0.195763         5.3270   74-A'
  92   0.0000       0.197202         5.3661   19-A"

                 SPIN DOWN ORBITALS
  NO   OCC          E(Eh)            E(eV)    Irrep
   0   1.0000    -318.181679     -8658.1637    1-A'
   1   1.0000     -88.017452     -2395.0766    2-A'
   2   1.0000     -88.017362     -2395.0742    3-A'
   3   1.0000     -88.016619     -2395.0540    4-A'
   4   1.0000     -88.016521     -2395.0513    5-A'
   5   1.0000     -38.011088     -1034.3343    6-A'
   6   1.0000     -33.515251      -911.9964    7-A'
   7   1.0000     -33.514140      -911.9661    8-A'
   8   1.0000     -33.511292      -911.8886    1-A"
   9   1.0000      -9.837302      -267.6866    9-A'
  10   1.0000      -9.836763      -267.6719   10-A'
  11   1.0000      -9.835907      -267.6486   11-A'
  12   1.0000      -9.835709      -267.6432   12-A'
  13   1.0000      -9.827244      -267.4129   13-A'
  14   1.0000      -9.827154      -267.4104   14-A'
  15   1.0000      -9.826694      -267.3979   15-A'
  16   1.0000      -9.826640      -267.3965   16-A'
  17   1.0000      -9.821186      -267.2481   17-A'
  18   1.0000      -9.820623      -267.2327   18-A'
  19   1.0000      -9.820075      -267.2178   19-A'
  20   1.0000      -9.819968      -267.2149   20-A'
  21   1.0000      -7.586179      -206.4304   21-A'
  22   1.0000      -7.586107      -206.4285   22-A'
  23   1.0000      -7.585201      -206.4038   23-A'
  24   1.0000      -7.585120      -206.4016   24-A'
  25   1.0000      -5.509214      -149.9133   25-A'
  26   1.0000      -5.509139      -149.9113   26-A'
  27   1.0000      -5.508243      -149.8869   27-A'
  28   1.0000      -5.508164      -149.8847   28-A'
  29   1.0000      -5.502663      -149.7351   29-A'
  30   1.0000      -5.502603      -149.7334   30-A'
  31   1.0000      -5.502163      -149.7215    2-A"
  32   1.0000      -5.502078      -149.7191    3-A"
  33   1.0000      -5.501579      -149.7056   31-A'
  34   1.0000      -5.501512      -149.7038   32-A'
  35   1.0000      -5.501190      -149.6950    4-A"
  36   1.0000      -5.501100      -149.6925    5-A"
  37   1.0000      -3.992531      -108.6423   33-A'
  38   1.0000      -2.506949       -68.2176    6-A"
  39   1.0000      -2.505873       -68.1883   34-A'
  40   1.0000      -2.504063       -68.1390   35-A'
  41   1.0000      -0.590922       -16.0798   36-A'
  42   1.0000      -0.590817       -16.0769   37-A'
  43   1.0000      -0.505631       -13.7589   38-A'
  44   1.0000      -0.504954       -13.7405   39-A'
  45   1.0000      -0.489925       -13.3315   40-A'
  46   1.0000      -0.489791       -13.3279   41-A'
  47   1.0000      -0.405832       -11.0433   42-A'
  48   1.0000      -0.404230       -10.9997   43-A'
  49   1.0000      -0.386175       -10.5083   44-A'
  50   1.0000      -0.381685       -10.3862   45-A'
  51   1.0000      -0.322627        -8.7791   46-A'
  52   1.0000      -0.320338        -8.7168   47-A'
  53   1.0000      -0.299600        -8.1525   48-A'
  54   1.0000      -0.297192        -8.0870   49-A'
  55   1.0000      -0.234292        -6.3754   50-A'
  56   1.0000      -0.230358        -6.2684   51-A'
  57   1.0000      -0.190830        -5.1927   52-A'
  58   1.0000      -0.190310        -5.1786   53-A'
  59   1.0000      -0.178932        -4.8690   54-A'
  60   1.0000      -0.176763        -4.8100   55-A'
  61   1.0000      -0.147372        -4.0102   56-A'
  62   1.0000      -0.144966        -3.9447   57-A'
  63   1.0000      -0.130288        -3.5453   58-A'
  64   1.0000      -0.118744        -3.2312    7-A"
  65   1.0000      -0.118661        -3.2289    8-A"
  66   1.0000      -0.117140        -3.1875   59-A'
  67   1.0000      -0.086711        -2.3595   60-A'
  68   1.0000      -0.068049        -1.8517   61-A'
  69   1.0000      -0.066277        -1.8035   62-A'
  70   1.0000      -0.056478        -1.5369   63-A'
  71   1.0000      -0.039162        -1.0657    9-A"
  72   1.0000      -0.038544        -1.0488   10-A"
  73   1.0000      -0.023164        -0.6303   11-A"
  74   1.0000      -0.022828        -0.6212   64-A'
  75   1.0000      -0.020024        -0.5449   12-A"
  76   1.0000       0.002592         0.0705   65-A'
  77   1.0000       0.006100         0.1660   13-A"
  78   1.0000       0.010169         0.2767   66-A'
  79   1.0000       0.012003         0.3266   14-A"
  80   1.0000       0.020870         0.5679   67-A'
  81   1.0000       0.031483         0.8567   68-A'
  82   1.0000       0.048260         1.3132   69-A'
  83   1.0000       0.050043         1.3617   15-A"
  84   1.0000       0.054692         1.4882   16-A"
  85   1.0000       0.063508         1.7281   17-A"
  86   1.0000       0.086591         2.3563   18-A"
  87   0.0000       0.127102         3.4586   70-A'
  88   0.0000       0.180754         4.9186   71-A'
  89   0.0000       0.180822         4.9204   72-A'
  90   0.0000       0.196955         5.3594   73-A'
  91   0.0000       0.197135         5.3643   74-A'

MULLIKEN ATOMIC CHARGES AND SPIN POPULATIONS
--------------------------------------------
   0 Cu:    0.163371    0.367078
   1 S :   -0.441301    0.176656
   2 C :    0.022409   -0.009190
   3 S :   -0.422825    0.154673
   4 C :    0.032323   -0.006791
   5 S :   -0.422963    0.154833
   6 C :    0.029660   -0.006895
   7 S :   -0.440509    0.178335
   8 C :    0.020662   -0.009391
   9 C :   -0.102967   -0.001392
  10 C :   -0.091949   -0.001609
  11 C :   -0.139941   -0.001079
  12 H :    0.066148    0.001627
  13 C :   -0.131594   -0.000673
  14 H :    0.063758    0.001469
  15 H :    0.032090    0.000958
  16 H :    0.033388    0.001052
  17 C :   -0.098628   -0.001423
  18 C :   -0.093142   -0.001554
  19 C :   -0.135137   -0.000691
  20 H :    0.064358    0.001502
  21 C :   -0.138115   -0.001069
  22 H :    0.065938    0.001586
  23 H :    0.032982    0.001024
  24 H :    0.031985    0.000966
Sum of atomic charges         :   -2.0000000

LOEWDIN ATOMIC CHARGES AND SPIN POPULATIONS
-------------------------------------------
   0 Cu:   -0.834136    0.426453
   1 S :   -0.014267    0.142504
   2 C :   -0.047777    0.005550
   3 S :    0.009207    0.114057
   4 C :   -0.041964    0.004720
   5 S :    0.007751    0.114610
   6 C :   -0.041682    0.004774
   7 S :   -0.016873    0.144434
   8 C :   -0.047124    0.005663
   9 C :    0.309147    0.003762
  10 C :    0.308847    0.003293
  11 C :    0.312754   -0.000290
  12 H :   -0.447209    0.005584
  13 C :    0.310964   -0.000120
  14 H :   -0.445059    0.006075
  15 H :   -0.417420    0.000102
  16 H :   -0.418069    0.000237
  17 C :    0.307940    0.003767
  18 C :    0.308313    0.003249
  19 C :    0.312156   -0.000123
  20 H :   -0.445986    0.006161
  21 C :    0.312233   -0.000293
  22 H :   -0.446627    0.005507
  23 H :   -0.417916    0.000214
  24 H :   -0.417203    0.000112

  Mayer bond orders larger than 0.100000
B(  0-Cu,  1-S ) :   0.6335 B(  0-Cu,  3-S ) :   0.7188 B(  0-Cu,  5-S ) :   0.7128
B(  0-Cu,  7-S ) :   0.6277 B(  1-S ,  2-C ) :   1.1882 B(  2-C ,  6-C ) :   1.2428
B(  2-C , 17-C ) :   1.3184 B(  3-S ,  4-C ) :   1.1790 B(  4-C ,  8-C ) :   1.2432
B(  4-C , 10-C ) :   1.3203 B(  5-S ,  6-C ) :   1.1816 B(  6-C , 18-C ) :   1.3191
B(  7-S ,  8-C ) :   1.1899 B(  8-C ,  9-C ) :   1.3170 B(  9-C , 13-C ) :   1.3650
B(  9-C , 14-H ) :   0.9718 B( 10-C , 11-C ) :   1.3614 B( 10-C , 12-H ) :   0.9688
B( 11-C , 13-C ) :   1.3398 B( 11-C , 15-H ) :   0.9884 B( 13-C , 16-H ) :   0.9870
B( 17-C , 19-C ) :   1.3639 B( 17-C , 20-H ) :   0.9710 B( 18-C , 21-C ) :   1.3631
B( 18-C , 22-H ) :   0.9691 B( 19-C , 21-C ) :   1.3392 B( 19-C , 23-H ) :   0.9875
B( 21-C , 24-H ) :   0.9883

FINAL SINGLE POINT ENERGY     -3686.923513268192

DIPOLE MOMENT
-------------
                                X             Y             Z
Electronic contribution:      0.06922      -0.02430      -0.00000
Nuclear contribution   :     -0.06461       0.02663       0.00000
                        -----------------------------------------
Total Dipole Moment    :      0.00461       0.00233      -0.00000
                        -----------------------------------------
Magnitude (a.u.)       :      0.00516
Magnitude (Debye)      :      0.01313

Rotational constants in cm-1:     0.034040     0.004526     0.003995
Rotational constants in MHz :  1020.485624   135.696792   119.770569

                             ****ORCA TERMINATED NORMALLY****
TOTAL RUN TIME: 0 days 6 hours 11 minutes 4 seconds 894 msec
