                         Program Version 5.0.4 -  RELEASE  -
|  1> ! RIJCOSX nofrozencore ReducedPop printbasis
|  2> ! M06L ano-rcc-dzp autoaux
|  3>
|  4> %maxcore 5000
|  5> %basis
|  6> PCDTrimBas overlap
|  7> PCDTrimAuxJ Coulomb
|  8> PCDTrimAuxJK Coulomb
|  9> PCDTrimAuxC Coulomb
| 10> PCDThresh -1
| 11> end
| 12>
| 13> %basis
| 14> newgto Cu "ano-rcc-tzp" end
| 15> newgto S "ano-rcc-tzp" end
| 16> end
| 17>
| 18> %pal
| 19> nprocs 12
| 20> end
| 21>
| 22> % sym SymThresh 1e-2 end
| 23> * xyz -2 2
| 24> Cu 5.4293366605145076e-06 -8.362985550595126e-06 2.140741952531958e-06
| 25> S -0.8351157273719768 -1.3965269502659166 -1.6510295729559035
| 26> C -2.411499709421666 -1.8730998287591532 -1.0621976277254865
| 27> S 1.850612267505961 0.5299819243473319 -1.2914979545781498
| 28> C 2.859047545444502 1.491060658164275 -0.23398005198839203
| 29> S -1.8506724253075613 -0.5298843385211259 1.2914506465933024
| 30> C -2.858899689936558 -1.491304089618845 0.23410497546775696
| 31> S 0.835060850387169 1.3966159268706557 1.6509866232137915
| 32> C 2.4116469436977312 1.8728593069786652 1.062321479818978
| 33> C 3.193456474120871 2.77601091933788 1.7978313049188892
| 34> C 4.0596938732765455 2.0367869823047737 -0.7120095311761582
| 35> C 4.765870327120425 3.015696261190645 -0.00808515428569448
| 36> H 4.3869692662200865 1.748458024312776 -1.7058085250164112
| 37> C 4.328102747258006 3.3892755397322243 1.2603001713558293
| 38> H 2.838569976990771 3.0698282540306283 2.780484254402977
| 39> H 5.648308700170802 3.4841509063680283 -0.4502157808192267
| 40> H 4.862092382273403 4.155087093177927 1.8277648547029124
| 41> C -3.1933436000698316 -2.776189245218411 -1.797739826347984
| 42> C -4.059580152279765 -2.0369780702908162 0.7121050608389936
| 43> C -4.328213637048403 -3.389092372827921 -1.2603945871360458
| 44> H -2.8384835070236942 -3.069963533803826 -2.780414567045749
| 45> C -4.765977912992427 -3.0155241712780794 0.00799514127475348
| 46> H -4.386868224912911 -1.7486322346085703 1.7058947075383273
| 47> H -4.862352882091565 -4.154657878639272 -1.8279844719256997
| 48> H -5.648563834615932 -3.4837380264646844 0.45000282636324324
| 49> *
| 50>
| 51> % eprnmr
| 52> gtensor true
| 53> Nuclei = all H {aiso,adip,aorb,fgrad,rho}
| 54> Nuclei = all Cu {aiso,adip,aorb,fgrad,rho}
| 55> end
| 56>
| 57>                          ****END OF INPUT****

CARTESIAN COORDINATES (ANGSTROEM)
---------------------------------
  Cu     0.000000    0.000000    0.000000
  S     -1.372761   -0.937542   -1.615597
  C     -2.703955   -1.623015   -0.711747
  S      1.372761    0.937542   -1.615597
  C      2.703955    1.623015   -0.711747
  S     -1.372761   -0.937542    1.615597
  C     -2.703955   -1.623015    0.711747
  S      1.372761    0.937542    1.615597
  C      2.703955    1.623015    0.711747
  C      3.716624    2.329000    1.378053
  C      3.716624    2.329000   -1.378053
  C      4.651119    3.112891   -0.696420
  H      3.701914    2.332516   -2.463249
  C      4.651119    3.112891    0.696420
  H      3.701914    2.332516    2.463249
  H      5.369937    3.720848   -1.250748
  H      5.369937    3.720848    1.250748
  C     -3.716624   -2.329000   -1.378053
  C     -3.716624   -2.329000    1.378053
  C     -4.651119   -3.112891   -0.696420
  H     -3.701914   -2.332516   -2.463249
  C     -4.651119   -3.112891    0.696420
  H     -3.701914   -2.332516    2.463249
  H     -5.369937   -3.720848   -1.250748
  H     -5.369937   -3.720848    1.250748

 Total Charge           Charge          ....   -2
 Multiplicity           Mult            ....    2
 Number of Electrons    NEL             ....  175
 Basis Dimension        Dim             ....  475

ORBITAL ENERGIES
----------------
                 SPIN UP ORBITALS
  NO   OCC          E(Eh)            E(eV)    Irrep
   0   1.0000    -318.181453     -8658.1575    1-Ag
   1   1.0000     -88.014875     -2395.0065    1-Bu
   2   1.0000     -88.014862     -2395.0062    1-Bg
   3   1.0000     -88.014859     -2395.0061    1-Au
   4   1.0000     -88.014826     -2395.0052    2-Ag
   5   1.0000     -38.026656     -1034.7579    3-Ag
   6   1.0000     -33.529750      -912.3909    2-Au
   7   1.0000     -33.528965      -912.3695    2-Bu
   8   1.0000     -33.515212      -911.9953    3-Bu
   9   1.0000      -9.833535      -267.5841    4-Bu
  10   1.0000      -9.833529      -267.5839    4-Ag
  11   1.0000      -9.833203      -267.5751    2-Bg
  12   1.0000      -9.833201      -267.5750    3-Au
  13   1.0000      -9.825748      -267.3722    5-Bu
  14   1.0000      -9.825748      -267.3722    5-Ag
  15   1.0000      -9.825318      -267.3605    3-Bg
  16   1.0000      -9.825318      -267.3605    4-Au
  17   1.0000      -9.817733      -267.1541    4-Bg
  18   1.0000      -9.817732      -267.1541    5-Au
  19   1.0000      -9.817728      -267.1540    6-Bu
  20   1.0000      -9.817728      -267.1539    6-Ag
  21   1.0000      -7.583390      -206.3545    6-Au
  22   1.0000      -7.583390      -206.3545    5-Bg
  23   1.0000      -7.583386      -206.3544    7-Bu
  24   1.0000      -7.583375      -206.3541    7-Ag
  25   1.0000      -5.506663      -149.8439    6-Bg
  26   1.0000      -5.506663      -149.8439    7-Au
  27   1.0000      -5.506662      -149.8439    8-Bu
  28   1.0000      -5.506662      -149.8439    8-Ag
  29   1.0000      -5.501295      -149.6978    7-Bg
  30   1.0000      -5.501295      -149.6978    8-Au
  31   1.0000      -5.501295      -149.6978    9-Bu
  32   1.0000      -5.501294      -149.6978    9-Ag
  33   1.0000      -5.499426      -149.6470    9-Au
  34   1.0000      -5.499426      -149.6470    8-Bg
  35   1.0000      -5.499426      -149.6470   10-Ag
  36   1.0000      -5.499426      -149.6470   10-Bu
  37   1.0000      -4.024292      -109.5066   11-Ag
  38   1.0000      -2.545649       -69.2706   10-Au
  39   1.0000      -2.544219       -69.2317   11-Bu
  40   1.0000      -2.516836       -68.4866   12-Bu
  41   1.0000      -0.588599       -16.0166   12-Ag
  42   1.0000      -0.588480       -16.0134   13-Bu
  43   1.0000      -0.503860       -13.7107   13-Ag
  44   1.0000      -0.502784       -13.6814   14-Bu
  45   1.0000      -0.488961       -13.3053   11-Au
  46   1.0000      -0.488707       -13.2984    9-Bg
  47   1.0000      -0.408093       -11.1048   12-Au
  48   1.0000      -0.405440       -11.0326   10-Bg
  49   1.0000      -0.387963       -10.5570   14-Ag
  50   1.0000      -0.381279       -10.3751   15-Bu
  51   1.0000      -0.322275        -8.7696   15-Ag
  52   1.0000      -0.319570        -8.6959   16-Bu
  53   1.0000      -0.299670        -8.1544   13-Au
  54   1.0000      -0.296186        -8.0596   11-Bg
  55   1.0000      -0.232465        -6.3257   16-Ag
  56   1.0000      -0.227350        -6.1865   17-Bu
  57   1.0000      -0.189256        -5.1499   17-Ag
  58   1.0000      -0.188428        -5.1274   18-Bu
  59   1.0000      -0.177880        -4.8404   14-Au
  60   1.0000      -0.174946        -4.7605   12-Bg
  61   1.0000      -0.145651        -3.9634   15-Au
  62   1.0000      -0.142797        -3.8857   13-Bg
  63   1.0000      -0.131608        -3.5812   18-Ag
  64   1.0000      -0.116964        -3.1827   19-Bu
  65   1.0000      -0.116730        -3.1764   19-Ag
  66   1.0000      -0.113772        -3.0959   20-Bu
  67   1.0000      -0.085730        -2.3328   20-Ag
  68   1.0000      -0.069517        -1.8917   16-Au
  69   1.0000      -0.065426        -1.7803   14-Bg
  70   1.0000      -0.061895        -1.6842   21-Bu
  71   1.0000      -0.038560        -1.0493   21-Ag
  72   1.0000      -0.036797        -1.0013   22-Bu
  73   1.0000      -0.032265        -0.8780   15-Bg
  74   1.0000      -0.029469        -0.8019   22-Ag
  75   1.0000      -0.024831        -0.6757   16-Bg
  76   1.0000      -0.018645        -0.5074   17-Au
  77   1.0000      -0.002426        -0.0660   17-Bg
  78   1.0000      -0.001036        -0.0282   23-Ag
  79   1.0000       0.001499         0.0408   24-Ag
  80   1.0000       0.018165         0.4943   25-Ag
  81   1.0000       0.018504         0.5035   23-Bu
  82   1.0000       0.034757         0.9458   18-Au
  83   1.0000       0.050735         1.3806   19-Au
  84   1.0000       0.052990         1.4419   18-Bg
  85   1.0000       0.062596         1.7033   24-Bu
  86   1.0000       0.086708         2.3595   26-Ag
  87   1.0000       0.105089         2.8596   19-Bg
  88   0.0000       0.181151         4.9294   27-Ag
  89   0.0000       0.181209         4.9310   25-Bu
  90   0.0000       0.196805         5.3553   20-Bg
  91   0.0000       0.197013         5.3610   20-Au
  92   0.0000       0.198323         5.3966   26-Bu

                 SPIN DOWN ORBITALS
  NO   OCC          E(Eh)            E(eV)    Irrep
   0   1.0000    -318.181279     -8658.1528    1-Ag
   1   1.0000     -88.013806     -2394.9774    1-Bu
   2   1.0000     -88.013794     -2394.9771    1-Bg
   3   1.0000     -88.013791     -2394.9770    1-Au
   4   1.0000     -88.013757     -2394.9761    2-Ag
   5   1.0000     -38.010786     -1034.3261    3-Ag
   6   1.0000     -33.514592      -911.9784    2-Au
   7   1.0000     -33.513847      -911.9581    2-Bu
   8   1.0000     -33.510876      -911.8773    3-Bu
   9   1.0000      -9.833652      -267.5873    4-Bu
  10   1.0000      -9.833647      -267.5871    4-Ag
  11   1.0000      -9.833320      -267.5782    2-Bg
  12   1.0000      -9.833318      -267.5782    3-Au
  13   1.0000      -9.825721      -267.3715    5-Bu
  14   1.0000      -9.825721      -267.3715    5-Ag
  15   1.0000      -9.825291      -267.3598    3-Bg
  16   1.0000      -9.825291      -267.3598    4-Au
  17   1.0000      -9.817677      -267.1526    4-Bg
  18   1.0000      -9.817676      -267.1525    5-Au
  19   1.0000      -9.817672      -267.1524    6-Bu
  20   1.0000      -9.817671      -267.1524    6-Ag
  21   1.0000      -7.582660      -206.3347    6-Au
  22   1.0000      -7.582660      -206.3347    5-Bg
  23   1.0000      -7.582657      -206.3346    7-Bu
  24   1.0000      -7.582645      -206.3343    7-Ag
  25   1.0000      -5.505738      -149.8187    6-Bg
  26   1.0000      -5.505738      -149.8187    7-Au
  27   1.0000      -5.505737      -149.8187    8-Bu
  28   1.0000      -5.505737      -149.8187    8-Ag
  29   1.0000      -5.499061      -149.6371    7-Bg
  30   1.0000      -5.499061      -149.6371    8-Au
  31   1.0000      -5.499061      -149.6371    9-Bu
  32   1.0000      -5.499060      -149.6370    9-Ag
  33   1.0000      -5.498606      -149.6247    9-Au
  34   1.0000      -5.498606      -149.6247    8-Bg
  35   1.0000      -5.498606      -149.6247   10-Ag
  36   1.0000      -5.498606      -149.6247   10-Bu
  37   1.0000      -3.990550      -108.5884   11-Ag
  38   1.0000      -2.505166       -68.1690   11-Bu
  39   1.0000      -2.503585       -68.1260   10-Au
  40   1.0000      -2.502082       -68.0851   12-Bu
  41   1.0000      -0.588234       -16.0067   12-Ag
  42   1.0000      -0.588126       -16.0037   13-Bu
  43   1.0000      -0.502562       -13.6754   13-Ag
  44   1.0000      -0.501559       -13.6481   14-Bu
  45   1.0000      -0.487916       -13.2769   11-Au
  46   1.0000      -0.487688       -13.2707    9-Bg
  47   1.0000      -0.404096       -10.9960   12-Au
  48   1.0000      -0.401348       -10.9212   10-Bg
  49   1.0000      -0.384717       -10.4687   14-Ag
  50   1.0000      -0.378105       -10.2887   15-Bu
  51   1.0000      -0.321061        -8.7365   15-Ag
  52   1.0000      -0.318030        -8.6540   16-Bu
  53   1.0000      -0.297876        -8.1056   13-Au
  54   1.0000      -0.293960        -7.9991   11-Bg
  55   1.0000      -0.231897        -6.3102   16-Ag
  56   1.0000      -0.226659        -6.1677   17-Bu
  57   1.0000      -0.188301        -5.1239   17-Ag
  58   1.0000      -0.187556        -5.1037   18-Bu
  59   1.0000      -0.177359        -4.8262   14-Au
  60   1.0000      -0.174082        -4.7370   12-Bg
  61   1.0000      -0.144977        -3.9450   15-Au
  62   1.0000      -0.141317        -3.8454   13-Bg
  63   1.0000      -0.130342        -3.5468   18-Ag
  64   1.0000      -0.116742        -3.1767   19-Bu
  65   1.0000      -0.116521        -3.1707   19-Ag
  66   1.0000      -0.112913        -3.0725   20-Bu
  67   1.0000      -0.084312        -2.2942   20-Ag
  68   1.0000      -0.068016        -1.8508   16-Au
  69   1.0000      -0.060209        -1.6384   21-Bu
  70   1.0000      -0.050837        -1.3833   14-Bg
  71   1.0000      -0.036502        -0.9933   21-Ag
  72   1.0000      -0.035892        -0.9767   22-Bu
  73   1.0000      -0.022750        -0.6191   15-Bg
  74   1.0000      -0.022651        -0.6164   22-Ag
  75   1.0000      -0.017791        -0.4841   17-Au
  76   1.0000      -0.002330        -0.0634   16-Bg
  77   1.0000       0.007292         0.1984   17-Bg
  78   1.0000       0.009675         0.2633   23-Ag
  79   1.0000       0.013799         0.3755   24-Ag
  80   1.0000       0.025327         0.6892   23-Bu
  81   1.0000       0.033957         0.9240   25-Ag
  82   1.0000       0.042909         1.1676   18-Au
  83   1.0000       0.053683         1.4608   19-Au
  84   1.0000       0.058526         1.5926   18-Bg
  85   1.0000       0.064490         1.7549   24-Bu
  86   1.0000       0.090889         2.4732   26-Ag
  87   0.0000       0.138102         3.7579   19-Bg
  88   0.0000       0.182205         4.9580   27-Ag
  89   0.0000       0.182234         4.9588   25-Bu
  90   0.0000       0.198351         5.3974   26-Bu
  91   0.0000       0.198542         5.4026   20-Bg

MULLIKEN ATOMIC CHARGES AND SPIN POPULATIONS
--------------------------------------------
   0 Cu:    0.143783    0.375278
   1 S :   -0.424579    0.162810
   2 C :    0.022676   -0.007606
   3 S :   -0.424579    0.162810
   4 C :    0.022676   -0.007606
   5 S :   -0.424579    0.162810
   6 C :    0.022676   -0.007606
   7 S :   -0.424579    0.162810
   8 C :    0.022676   -0.007606
   9 C :   -0.096064   -0.001779
  10 C :   -0.096064   -0.001779
  11 C :   -0.132072   -0.000264
  12 H :    0.068132    0.002024
  13 C :   -0.132072   -0.000264
  14 H :    0.068132    0.002024
  15 H :    0.025962    0.000995
  16 H :    0.025962    0.000995
  17 C :   -0.096064   -0.001779
  18 C :   -0.096064   -0.001779
  19 C :   -0.132072   -0.000264
  20 H :    0.068132    0.002024
  21 C :   -0.132072   -0.000264
  22 H :    0.068132    0.002024
  23 H :    0.025962    0.000995
  24 H :    0.025962    0.000995
Sum of atomic charges         :   -2.0000000

LOEWDIN ATOMIC CHARGES AND SPIN POPULATIONS
-------------------------------------------
   0 Cu:   -0.896438    0.441994
   1 S :    0.007350    0.124133
   2 C :   -0.036248    0.004823
   3 S :    0.007350    0.124133
   4 C :   -0.036248    0.004823
   5 S :    0.007350    0.124133
   6 C :   -0.036248    0.004823
   7 S :    0.007350    0.124133
   8 C :   -0.036248    0.004823
   9 C :    0.307162    0.003822
  10 C :    0.307162    0.003822
  11 C :    0.309328    0.000233
  12 H :   -0.450364    0.006214
  13 C :    0.309328    0.000233
  14 H :   -0.450364    0.006214
  15 H :   -0.413119    0.000276
  16 H :   -0.413119    0.000276
  17 C :    0.307162    0.003822
  18 C :    0.307162    0.003822
  19 C :    0.309328    0.000233
  20 H :   -0.450364    0.006214
  21 C :    0.309328    0.000233
  22 H :   -0.450364    0.006214
  23 H :   -0.413119    0.000276
  24 H :   -0.413119    0.000276

  Mayer bond orders larger than 0.100000
B(  0-Cu,  1-S ) :   0.7005 B(  0-Cu,  3-S ) :   0.7005 B(  0-Cu,  5-S ) :   0.7005
B(  0-Cu,  7-S ) :   0.7005 B(  1-S ,  2-C ) :   1.1810 B(  2-C ,  6-C ) :   1.2448
B(  2-C , 17-C ) :   1.3211 B(  3-S ,  4-C ) :   1.1810 B(  4-C ,  8-C ) :   1.2448
B(  4-C , 10-C ) :   1.3211 B(  5-S ,  6-C ) :   1.1810 B(  6-C , 18-C ) :   1.3211
B(  7-S ,  8-C ) :   1.1810 B(  8-C ,  9-C ) :   1.3211 B(  9-C , 13-C ) :   1.3595
B(  9-C , 14-H ) :   0.9687 B( 10-C , 11-C ) :   1.3595 B( 10-C , 12-H ) :   0.9687
B( 11-C , 13-C ) :   1.3413 B( 11-C , 15-H ) :   0.9907 B( 13-C , 16-H ) :   0.9907
B( 17-C , 19-C ) :   1.3595 B( 17-C , 20-H ) :   0.9687 B( 18-C , 21-C ) :   1.3595
B( 18-C , 22-H ) :   0.9687 B( 19-C , 21-C ) :   1.3413 B( 19-C , 23-H ) :   0.9907
B( 21-C , 24-H ) :   0.9907

FINAL SINGLE POINT ENERGY     -3686.922688296941

DIPOLE MOMENT
-------------
                                X             Y             Z
Electronic contribution:     -0.00000       0.00000       0.00000
Nuclear contribution   :      0.00000      -0.00000       0.00000
                        -----------------------------------------
Total Dipole Moment    :     -0.00000       0.00000       0.00000
                        -----------------------------------------
Magnitude (a.u.)       :      0.00000
Magnitude (Debye)      :      0.00000

Rotational constants in cm-1:     0.033325     0.004802     0.004200
Rotational constants in MHz :   999.044484   143.957263   125.919622

                             ****ORCA TERMINATED NORMALLY****
TOTAL RUN TIME: 0 days 4 hours 7 minutes 15 seconds 440 msec
