                         Program Version 5.0.4 -  RELEASE  -
|  1> ! RIJCOSX nofrozencore ReducedPop printbasis
|  2> ! M06L ano-rcc-dzp autoaux
|  3>
|  4> %maxcore 5000
|  5> %basis
|  6> PCDTrimBas overlap
|  7> PCDTrimAuxJ Coulomb
|  8> PCDTrimAuxJK Coulomb
|  9> PCDTrimAuxC Coulomb
| 10> PCDThresh -1
| 11> end
| 12>
| 13> %basis
| 14> newgto Cu "ano-rcc-tzp" end
| 15> newgto S "ano-rcc-tzp" end
| 16> end
| 17>
| 18> %pal
| 19> nprocs 12
| 20> end
| 21>
| 22> % sym SymThresh 1e-2 end
| 23> * xyz -2 2
| 24> Cu 0.0044048525972941064 -0.0025222590285167755 0.0036620436902332246
| 25> S 0.6788458833352967 2.1376234047848373 0.5861415686110317
| 26> C 2.001376105128796 2.4885553907980156 -0.503358991415297
| 27> S -1.534887645100957 -0.058909481507050075 1.7362223275594661
| 28> C -2.197086113569179 -1.6766644521604153 1.6772941139290674
| 29> S 1.4776351177810865 0.0916928041604926 -1.783820119265466
| 30> C 2.353278569327424 1.5872272183323302 -1.5474410520075668
| 31> S -0.7360962993661767 -2.10484129107485 -0.6337376050636252
| 32> C -1.845182241844557 -2.5779934305884042 0.6332132235057352
| 33> C -2.527813011835909 -3.8005747878630234 0.5501210042336212
| 34> C -3.2091438785299093 -2.0554661405754566 2.5716314154504816
| 35> C -3.95180487135585 -3.2271432853241966 2.4034651343290014
| 36> H -3.4772586369335676 -1.3575737509961625 3.358341282719509
| 37> C -3.6074754975018397 -4.109064756380554 1.3818707594344957
| 38> H -2.2593998306064815 -4.476922727443522 -0.255087066706749
| 39> H -4.793718420814081 -3.445964336817277 3.0643728560815213
| 40> H -4.175327714860217 -5.029859615263771 1.2296096771304097
| 41> C 2.6327391860523193 3.740492055206842 -0.46288807445436175
| 42> C 3.3140805337376396 1.9953794908122853 -2.484391571548444
| 43> C 3.502576104006126 4.169131111947828 -1.4690805249318137
| 44> H 2.3507222283669345 4.424630684254927 0.3310093826319342
| 45> C 3.8468998477561613 3.287212864740684 -2.49067958050207
| 46> H 3.568609851250075 1.3052662493854894 -3.2823959094032293
| 47> H 3.9045581734252033 5.18490523165695 -1.4547172676162285
| 48> H 4.522957324535029 3.601005117436637 -3.2894734255537146
| 49> *
| 50>
| 51> % eprnmr
| 52> gtensor true
| 53> Nuclei = all H {aiso,adip,aorb,fgrad,rho}
| 54> Nuclei = all Cu {aiso,adip,aorb,fgrad,rho}
| 55> end
| 56>
| 57>                          ****END OF INPUT****

CARTESIAN COORDINATES (ANGSTROEM)
---------------------------------
  Cu    -0.000000    0.000000    0.006259
  S      1.615597   -1.661931   -0.040675
  C      0.711747   -3.151642    0.110970
  S      1.615597    1.661931   -0.040675
  C      0.711747    3.151642    0.110970
  S     -1.615597   -1.661931   -0.040675
  C     -0.711747   -3.151642    0.110970
  S     -1.615597    1.661931   -0.040675
  C     -0.711747    3.151642    0.110970
  C     -1.378053    4.385460    0.074550
  C      1.378053    4.385460    0.074550
  C      0.696420    5.596188   -0.074530
  H      2.463249    4.375043    0.064891
  C     -0.696420    5.596188   -0.074530
  H     -2.463249    4.375043    0.064891
  H      1.250749    6.530201   -0.192370
  H     -1.250749    6.530201   -0.192370
  C      1.378053   -4.385460    0.074550
  C     -1.378053   -4.385460    0.074550
  C      0.696420   -5.596188   -0.074530
  H      2.463249   -4.375043    0.064891
  C     -0.696420   -5.596188   -0.074530
  H     -2.463249   -4.375043    0.064891
  H      1.250749   -6.530201   -0.192370
  H     -1.250749   -6.530201   -0.192370

 Total Charge           Charge          ....   -2
 Multiplicity           Mult            ....    2
 Number of Electrons    NEL             ....  175
 Basis Dimension        Dim             ....  475

ORBITAL ENERGIES
----------------
                 SPIN UP ORBITALS
  NO   OCC          E(Eh)            E(eV)    Irrep
   0   1.0000    -318.181371     -8658.1553    1-A1
   1   1.0000     -88.014776     -2395.0038    1-B2
   2   1.0000     -88.014765     -2395.0035    1-A2
   3   1.0000     -88.014761     -2395.0034    1-B1
   4   1.0000     -88.014728     -2395.0025    2-A1
   5   1.0000     -38.026583     -1034.7559    3-A1
   6   1.0000     -33.529681      -912.3890    2-B1
   7   1.0000     -33.528895      -912.3676    2-B2
   8   1.0000     -33.515135      -911.9932    4-A1
   9   1.0000      -9.833564      -267.5849    3-B2
  10   1.0000      -9.833558      -267.5847    5-A1
  11   1.0000      -9.833232      -267.5758    2-A2
  12   1.0000      -9.833230      -267.5758    3-B1
  13   1.0000      -9.825760      -267.3725    4-B2
  14   1.0000      -9.825760      -267.3725    6-A1
  15   1.0000      -9.825330      -267.3608    3-A2
  16   1.0000      -9.825330      -267.3608    4-B1
  17   1.0000      -9.817738      -267.1542    4-A2
  18   1.0000      -9.817737      -267.1542    5-B1
  19   1.0000      -9.817733      -267.1541    5-B2
  20   1.0000      -9.817733      -267.1541    7-A1
  21   1.0000      -7.583305      -206.3522    5-A2
  22   1.0000      -7.583305      -206.3522    6-B1
  23   1.0000      -7.583301      -206.3521    6-B2
  24   1.0000      -7.583290      -206.3518    8-A1
  25   1.0000      -5.506578      -149.8416    6-A2
  26   1.0000      -5.506578      -149.8416    7-B1
  27   1.0000      -5.506578      -149.8416    7-B2
  28   1.0000      -5.506578      -149.8416    9-A1
  29   1.0000      -5.501212      -149.6956    7-A2
  30   1.0000      -5.501212      -149.6956    8-B1
  31   1.0000      -5.501212      -149.6956    8-B2
  32   1.0000      -5.501211      -149.6956   10-A1
  33   1.0000      -5.499338      -149.6446    8-A2
  34   1.0000      -5.499337      -149.6446    9-B1
  35   1.0000      -5.499337      -149.6446    9-B2
  36   1.0000      -5.499337      -149.6446   11-A1
  37   1.0000      -4.024225      -109.5047   12-A1
  38   1.0000      -2.545583       -69.2688   10-B1
  39   1.0000      -2.544149       -69.2298   10-B2
  40   1.0000      -2.516773       -68.4849   13-A1
  41   1.0000      -0.588576       -16.0160   14-A1
  42   1.0000      -0.588458       -16.0128   11-B2
  43   1.0000      -0.503835       -13.7101   15-A1
  44   1.0000      -0.502762       -13.6808   12-B2
  45   1.0000      -0.488956       -13.3052   11-B1
  46   1.0000      -0.488703       -13.2983    9-A2
  47   1.0000      -0.408035       -11.1032   12-B1
  48   1.0000      -0.405385       -11.0311   10-A2
  49   1.0000      -0.387940       -10.5564   16-A1
  50   1.0000      -0.381266       -10.3748   13-B2
  51   1.0000      -0.322261        -8.7692   17-A1
  52   1.0000      -0.319553        -8.6955   14-B2
  53   1.0000      -0.299663        -8.1543   13-B1
  54   1.0000      -0.296181        -8.0595   11-A2
  55   1.0000      -0.232448        -6.3252   18-A1
  56   1.0000      -0.227336        -6.1861   15-B2
  57   1.0000      -0.189238        -5.1494   19-A1
  58   1.0000      -0.188412        -5.1270   16-B2
  59   1.0000      -0.177893        -4.8407   14-B1
  60   1.0000      -0.174952        -4.7607   12-A2
  61   1.0000      -0.145672        -3.9639   15-B1
  62   1.0000      -0.142792        -3.8856   13-A2
  63   1.0000      -0.131574        -3.5803   20-A1
  64   1.0000      -0.116902        -3.1811   17-B2
  65   1.0000      -0.116861        -3.1799   21-A1
  66   1.0000      -0.113725        -3.0946   18-B2
  67   1.0000      -0.085686        -2.3316   22-A1
  68   1.0000      -0.069569        -1.8931   16-B1
  69   1.0000      -0.065314        -1.7773   14-A2
  70   1.0000      -0.061861        -1.6833   19-B2
  71   1.0000      -0.038313        -1.0425   20-B2
  72   1.0000      -0.036919        -1.0046   23-A1
  73   1.0000      -0.031566        -0.8590   15-A2
  74   1.0000      -0.029472        -0.8020   24-A1
  75   1.0000      -0.025763        -0.7010   17-B1
  76   1.0000      -0.018274        -0.4973   16-A2
  77   1.0000      -0.002503        -0.0681   18-B1
  78   1.0000      -0.000883        -0.0240   25-A1
  79   1.0000       0.001315         0.0358   21-B2
  80   1.0000       0.018195         0.4951   26-A1
  81   1.0000       0.018726         0.5096   22-B2
  82   1.0000       0.034776         0.9463   19-B1
  83   1.0000       0.051050         1.3891   17-A2
  84   1.0000       0.052864         1.4385   20-B1
  85   1.0000       0.062240         1.6936   27-A1
  86   1.0000       0.087132         2.3710   23-B2
  87   1.0000       0.105144         2.8611   18-A2
  88   0.0000       0.181082         4.9275   28-A1
  89   0.0000       0.181265         4.9325   24-B2
  90   0.0000       0.196837         5.3562   19-A2
  91   0.0000       0.197003         5.3607   21-B1
  92   0.0000       0.197900         5.3851   29-A1

                 SPIN DOWN ORBITALS
  NO   OCC          E(Eh)            E(eV)    Irrep
   0   1.0000    -318.181197     -8658.1506    1-A1
   1   1.0000     -88.013708     -2394.9748    1-B2
   2   1.0000     -88.013696     -2394.9744    1-A2
   3   1.0000     -88.013693     -2394.9743    1-B1
   4   1.0000     -88.013659     -2394.9734    2-A1
   5   1.0000     -38.010728     -1034.3245    3-A1
   6   1.0000     -33.514536      -911.9769    2-B1
   7   1.0000     -33.513779      -911.9563    2-B2
   8   1.0000     -33.510813      -911.8756    4-A1
   9   1.0000      -9.833681      -267.5881    3-B2
  10   1.0000      -9.833675      -267.5879    5-A1
  11   1.0000      -9.833349      -267.5790    2-A2
  12   1.0000      -9.833347      -267.5790    3-B1
  13   1.0000      -9.825732      -267.3718    4-B2
  14   1.0000      -9.825732      -267.3718    6-A1
  15   1.0000      -9.825302      -267.3601    3-A2
  16   1.0000      -9.825302      -267.3601    4-B1
  17   1.0000      -9.817682      -267.1527    4-A2
  18   1.0000      -9.817682      -267.1527    5-B1
  19   1.0000      -9.817678      -267.1526    5-B2
  20   1.0000      -9.817677      -267.1526    7-A1
  21   1.0000      -7.582573      -206.3323    6-B1
  22   1.0000      -7.582573      -206.3323    5-A2
  23   1.0000      -7.582570      -206.3322    6-B2
  24   1.0000      -7.582557      -206.3319    8-A1
  25   1.0000      -5.505652      -149.8164    6-A2
  26   1.0000      -5.505652      -149.8164    7-B1
  27   1.0000      -5.505651      -149.8164    7-B2
  28   1.0000      -5.505651      -149.8164    9-A1
  29   1.0000      -5.498972      -149.6346    7-A2
  30   1.0000      -5.498972      -149.6346    8-B1
  31   1.0000      -5.498972      -149.6346    8-B2
  32   1.0000      -5.498972      -149.6346   10-A1
  33   1.0000      -5.498518      -149.6223    8-A2
  34   1.0000      -5.498517      -149.6223    9-B1
  35   1.0000      -5.498517      -149.6223    9-B2
  36   1.0000      -5.498517      -149.6223   11-A1
  37   1.0000      -3.990525      -108.5877   12-A1
  38   1.0000      -2.505078       -68.1666   13-A1
  39   1.0000      -2.503564       -68.1254   10-B1
  40   1.0000      -2.502105       -68.0857   10-B2
  41   1.0000      -0.588211       -16.0060   14-A1
  42   1.0000      -0.588103       -16.0031   11-B2
  43   1.0000      -0.502539       -13.6748   15-A1
  44   1.0000      -0.501537       -13.6475   12-B2
  45   1.0000      -0.487913       -13.2768   11-B1
  46   1.0000      -0.487685       -13.2706    9-A2
  47   1.0000      -0.404049       -10.9947   12-B1
  48   1.0000      -0.401303       -10.9200   10-A2
  49   1.0000      -0.384708       -10.4684   16-A1
  50   1.0000      -0.378103       -10.2887   13-B2
  51   1.0000      -0.321044        -8.7361   17-A1
  52   1.0000      -0.318012        -8.6535   14-B2
  53   1.0000      -0.297874        -8.1056   13-B1
  54   1.0000      -0.293959        -7.9990   11-A2
  55   1.0000      -0.231880        -6.3098   18-A1
  56   1.0000      -0.226646        -6.1673   15-B2
  57   1.0000      -0.188282        -5.1234   19-A1
  58   1.0000      -0.187539        -5.1032   16-B2
  59   1.0000      -0.177373        -4.8266   14-B1
  60   1.0000      -0.174091        -4.7373   12-A2
  61   1.0000      -0.144997        -3.9456   15-B1
  62   1.0000      -0.141316        -3.8454   13-A2
  63   1.0000      -0.130311        -3.5459   20-A1
  64   1.0000      -0.116668        -3.1747   21-A1
  65   1.0000      -0.116649        -3.1742   17-B2
  66   1.0000      -0.112869        -3.0713   18-B2
  67   1.0000      -0.084286        -2.2936   22-A1
  68   1.0000      -0.068064        -1.8521   16-B1
  69   1.0000      -0.060152        -1.6368   19-B2
  70   1.0000      -0.050687        -1.3793   14-A2
  71   1.0000      -0.036311        -0.9881   20-B2
  72   1.0000      -0.035994        -0.9794   23-A1
  73   1.0000      -0.022635        -0.6159   24-A1
  74   1.0000      -0.022548        -0.6135   17-B1
  75   1.0000      -0.017999        -0.4898   15-A2
  76   1.0000      -0.002292        -0.0624   16-A2
  77   1.0000       0.007187         0.1956   18-B1
  78   1.0000       0.009893         0.2692   25-A1
  79   1.0000       0.013452         0.3661   21-B2
  80   1.0000       0.025661         0.6983   22-B2
  81   1.0000       0.033964         0.9242   26-A1
  82   1.0000       0.042904         1.1675   19-B1
  83   1.0000       0.053916         1.4671   17-A2
  84   1.0000       0.058507         1.5921   20-B1
  85   1.0000       0.064155         1.7457   27-A1
  86   1.0000       0.091291         2.4842   23-B2
  87   0.0000       0.138081         3.7574   18-A2
  88   0.0000       0.182114         4.9556   28-A1
  89   0.0000       0.182287         4.9603   24-B2
  90   0.0000       0.197949         5.3865   29-A1
  91   0.0000       0.198548         5.4028   19-A2

MULLIKEN ATOMIC CHARGES AND SPIN POPULATIONS
--------------------------------------------
   0 Cu:    0.143165    0.375024
   1 S :   -0.424085    0.162801
   2 C :    0.022778   -0.007570
   3 S :   -0.424085    0.162801
   4 C :    0.022778   -0.007570
   5 S :   -0.424085    0.162801
   6 C :    0.022778   -0.007570
   7 S :   -0.424085    0.162801
   8 C :    0.022778   -0.007570
   9 C :   -0.096173   -0.001804
  10 C :   -0.096173   -0.001804
  11 C :   -0.132408   -0.000178
  12 H :    0.067927    0.002010
  13 C :   -0.132408   -0.000178
  14 H :    0.067927    0.002010
  15 H :    0.026170    0.000985
  16 H :    0.026170    0.000985
  17 C :   -0.096173   -0.001804
  18 C :   -0.096173   -0.001804
  19 C :   -0.132408   -0.000178
  20 H :    0.067927    0.002010
  21 C :   -0.132408   -0.000178
  22 H :    0.067927    0.002010
  23 H :    0.026170    0.000985
  24 H :    0.026170    0.000985
Sum of atomic charges         :   -2.0000000

LOEWDIN ATOMIC CHARGES AND SPIN POPULATIONS
-------------------------------------------
   0 Cu:   -0.895493    0.441603
   1 S :    0.007115    0.124165
   2 C :   -0.036242    0.004829
   3 S :    0.007115    0.124165
   4 C :   -0.036242    0.004829
   5 S :    0.007115    0.124165
   6 C :   -0.036242    0.004829
   7 S :    0.007115    0.124165
   8 C :   -0.036242    0.004829
   9 C :    0.307179    0.003820
  10 C :    0.307179    0.003820
  11 C :    0.309374    0.000283
  12 H :   -0.450401    0.006216
  13 C :    0.309374    0.000283
  14 H :   -0.450401    0.006216
  15 H :   -0.413152    0.000285
  16 H :   -0.413152    0.000285
  17 C :    0.307179    0.003820
  18 C :    0.307179    0.003820
  19 C :    0.309374    0.000283
  20 H :   -0.450401    0.006216
  21 C :    0.309374    0.000283
  22 H :   -0.450401    0.006216
  23 H :   -0.413152    0.000285
  24 H :   -0.413152    0.000285

  Mayer bond orders larger than 0.100000
B(  0-Cu,  1-S ) :   0.7000 B(  0-Cu,  3-S ) :   0.7000 B(  0-Cu,  5-S ) :   0.7000
B(  0-Cu,  7-S ) :   0.7000 B(  1-S ,  2-C ) :   1.1812 B(  2-C ,  6-C ) :   1.2446
B(  2-C , 17-C ) :   1.3214 B(  3-S ,  4-C ) :   1.1812 B(  4-C ,  8-C ) :   1.2446
B(  4-C , 10-C ) :   1.3214 B(  5-S ,  6-C ) :   1.1812 B(  6-C , 18-C ) :   1.3214
B(  7-S ,  8-C ) :   1.1812 B(  8-C ,  9-C ) :   1.3214 B(  9-C , 13-C ) :   1.3595
B(  9-C , 14-H ) :   0.9687 B( 10-C , 11-C ) :   1.3595 B( 10-C , 12-H ) :   0.9687
B( 11-C , 13-C ) :   1.3416 B( 11-C , 15-H ) :   0.9907 B( 13-C , 16-H ) :   0.9907
B( 17-C , 19-C ) :   1.3595 B( 17-C , 20-H ) :   0.9687 B( 18-C , 21-C ) :   1.3595
B( 18-C , 22-H ) :   0.9687 B( 19-C , 21-C ) :   1.3416 B( 19-C , 23-H ) :   0.9907
B( 21-C , 24-H ) :   0.9907

FINAL SINGLE POINT ENERGY     -3686.922377335554

DIPOLE MOMENT
-------------
                                X             Y             Z
Electronic contribution:      0.00000      -0.00000       0.52158
Nuclear contribution   :      0.00000      -0.00000      -0.50616
                        -----------------------------------------
Total Dipole Moment    :      0.00000      -0.00000       0.01543
                        -----------------------------------------
Magnitude (a.u.)       :      0.01543
Magnitude (Debye)      :      0.03921

Rotational constants in cm-1:     0.033323     0.004802     0.004200
Rotational constants in MHz :   999.008125   143.956499   125.919615

                             ****ORCA TERMINATED NORMALLY****
TOTAL RUN TIME: 0 days 5 hours 35 minutes 17 seconds 402 msec
