                         Program Version 5.0.4 -  RELEASE  -
|  1> ! RIJCOSX nofrozencore ReducedPop printbasis
|  2> ! M06L ano-rcc-dzp autoaux
|  3>
|  4> %maxcore 5000
|  5> %basis
|  6> PCDTrimBas overlap
|  7> PCDTrimAuxJ Coulomb
|  8> PCDTrimAuxJK Coulomb
|  9> PCDTrimAuxC Coulomb
| 10> PCDThresh -1
| 11> end
| 12>
| 13> %basis
| 14> newgto Cu "ano-rcc-tzp" end
| 15> newgto S "ano-rcc-tzp" end
| 16> end
| 17>
| 18> %pal
| 19> nprocs 12
| 20> end
| 21>
| 22> % sym SymThresh 1e-2 end
| 23> * xyz -2 2
| 24> Cu 5.4796091995673495e-06 5.107965519345032e-07 8.349429315980148e-06
| 25> S 0.2562222358599499 1.5219094068029693 1.7292255141633674
| 26> C 1.4380729182010024 0.7943410347976299 2.781341678250532
| 27> S -1.5651538860453351 1.3521814809595445 -1.0460041848172692
| 28> C -2.015456528769186 0.4719575468688973 -2.4813001424632524
| 29> S 1.5651375373951053 -1.3521255154533693 1.0460306533599988
| 30> C 2.015007217208641 -0.47245100132708967 2.4802119371428963
| 31> S -0.2561883524602815 -1.521963737760178 -1.7292252645322859
| 32> C -1.438919821843064 -0.7939489382893755 -2.782211148519878
| 33> C -1.8493812517828772 -1.439324327408949 -3.950230647805109
| 34> C -2.956342512407432 0.9913588055323451 -3.3723695316091913
| 35> C -3.35628580793203 0.3386631521699103 -4.53178078991045
| 36> H -3.4515370217807813 2.0915541015787875 -3.1023910288691217
| 37> C -2.7869040066173 -0.9111780735607651 -4.828640021144104
| 38> H -1.3427638285039811 -2.5387385441733303 -4.203057328803405
| 39> H -3.996864263785161 0.7250284719078532 -5.109178871973956
| 40> H -3.0387804256094806 -1.3825904813840422 -5.612757064012027
| 41> C 1.8349496823683737 1.4724208175708495 3.9590221214129633
| 42> C 2.9720084130321593 -1.024224327951825 3.3655624295304194
| 43> C 2.778801762998297 0.8924795895307371 4.8002582310610755
| 44> H 1.522465533796519 2.1452078348274326 4.110196971676866
| 45> C 3.332246484425023 -0.3228031985446613 4.511328480546214
| 46> H 3.2733819615217343 -1.699367453527728 3.1962779868801787
| 47> H 3.143665737232864 1.5853162848135667 5.9450154418199
| 48> H 4.273222702028013 -0.8942147614896194 5.356045269038292
| 49> *
| 50>
| 51> % eprnmr
| 52> gtensor true
| 53> Nuclei = all H {aiso,adip,aorb,fgrad,rho}
| 54> Nuclei = all Cu {aiso,adip,aorb,fgrad,rho}
| 55> end
| 56>
| 57>                          ****END OF INPUT****

CARTESIAN COORDINATES (ANGSTROEM)
---------------------------------
  Cu     0.000000   -0.000000    0.000010
  S      0.000000    1.615556    1.661944
  C      0.000000    0.712091    3.150846
  S      0.000000    1.615618   -1.661927
  C      0.000000    0.711594   -3.152021
  S      0.000000   -1.615556    1.661944
  C      0.000000   -0.712091    3.150846
  S      0.000000   -1.615618   -1.661927
  C      0.000000   -0.711594   -3.152021
  C      0.000000   -1.366337   -4.385092
  C      0.000000    1.366337   -4.385092
  C      0.000000    0.702571   -5.605444
  H      0.000000    2.602787   -4.374782
  C      0.000000   -0.702571   -5.605444
  H      0.000000   -2.602787   -4.374782
  H      0.000000    1.184648   -6.420525
  H      0.000000   -1.184648   -6.420525
  C      0.000000    1.403419    4.386265
  C      0.000000   -1.403419    4.386265
  C      0.000000    0.683135    5.576179
  H      0.000000    2.161117    4.375600
  C      0.000000   -0.683135    5.576179
  H      0.000000   -2.161117    4.375600
  H      0.000000    1.393813    6.767604
  H      0.000000   -1.393813    6.767604

 Total Charge           Charge          ....   -2
 Multiplicity           Mult            ....    2
 Number of Electrons    NEL             ....  175
 Basis Dimension        Dim             ....  475

ORBITAL ENERGIES
----------------
                 SPIN UP ORBITALS
  NO   OCC          E(Eh)            E(eV)    Irrep
   0   1.0000    -318.183974     -8658.2261    1-A1
   1   1.0000     -88.017086     -2395.0667    1-B2
   2   1.0000     -88.017077     -2395.0664    2-A1
   3   1.0000     -88.016653     -2395.0549    2-B2
   4   1.0000     -88.016641     -2395.0546    3-A1
   5   1.0000     -38.029171     -1034.8264    4-A1
   6   1.0000     -33.532328      -912.4610    3-B2
   7   1.0000     -33.531479      -912.4379    5-A1
   8   1.0000     -33.517664      -912.0620    1-B1
   9   1.0000      -9.852954      -268.1125    6-A1
  10   1.0000      -9.852410      -268.0977    4-B2
  11   1.0000      -9.836446      -267.6633    7-A1
  12   1.0000      -9.836115      -267.6543    5-B2
  13   1.0000      -9.835414      -267.6352    8-A1
  14   1.0000      -9.835085      -267.6263    6-B2
  15   1.0000      -9.831147      -267.5191    7-B2
  16   1.0000      -9.831143      -267.5190    9-A1
  17   1.0000      -9.812626      -267.0151   10-A1
  18   1.0000      -9.812235      -267.0045    8-B2
  19   1.0000      -9.796582      -266.5785    9-B2
  20   1.0000      -9.796580      -266.5785   11-A1
  21   1.0000      -7.585709      -206.4176   10-B2
  22   1.0000      -7.585699      -206.4174   12-A1
  23   1.0000      -7.585398      -206.4092   11-B2
  24   1.0000      -7.585388      -206.4089   13-A1
  25   1.0000      -5.508960      -149.9064   12-B2
  26   1.0000      -5.508960      -149.9064   14-A1
  27   1.0000      -5.508579      -149.8961   13-B2
  28   1.0000      -5.508579      -149.8961   15-A1
  29   1.0000      -5.503638      -149.7616   14-B2
  30   1.0000      -5.503638      -149.7616   16-A1
  31   1.0000      -5.503252      -149.7511   15-B2
  32   1.0000      -5.503252      -149.7511   17-A1
  33   1.0000      -5.501742      -149.7100    1-A2
  34   1.0000      -5.501741      -149.7100    2-B1
  35   1.0000      -5.501496      -149.7033    2-A2
  36   1.0000      -5.501496      -149.7033    3-B1
  37   1.0000      -4.026779      -109.5742   18-A1
  38   1.0000      -2.548246       -69.3413   16-B2
  39   1.0000      -2.546700       -69.2992   19-A1
  40   1.0000      -2.519209       -68.5512    4-B1
  41   1.0000      -0.597504       -16.2589   20-A1
  42   1.0000      -0.592397       -16.1200   21-A1
  43   1.0000      -0.516740       -14.0612   17-B2
  44   1.0000      -0.511670       -13.9232   22-A1
  45   1.0000      -0.502988       -13.6870   23-A1
  46   1.0000      -0.488400       -13.2900   18-B2
  47   1.0000      -0.414963       -11.2917   19-B2
  48   1.0000      -0.411802       -11.2057   20-B2
  49   1.0000      -0.403767       -10.9871   24-A1
  50   1.0000      -0.391818       -10.6619   25-A1
  51   1.0000      -0.357689        -9.7332   26-A1
  52   1.0000      -0.314535        -8.5589   21-B2
  53   1.0000      -0.309782        -8.4296   27-A1
  54   1.0000      -0.284691        -7.7468   22-B2
  55   1.0000      -0.240825        -6.5532   28-A1
  56   1.0000      -0.230778        -6.2798   23-B2
  57   1.0000      -0.219327        -5.9682   29-A1
  58   1.0000      -0.195007        -5.3064   30-A1
  59   1.0000      -0.191215        -5.2032   31-A1
  60   1.0000      -0.176719        -4.8088   24-B2
  61   1.0000      -0.137890        -3.7522   25-B2
  62   1.0000      -0.130098        -3.5401   32-A1
  63   1.0000      -0.122507        -3.3336   26-B2
  64   1.0000      -0.120653        -3.2831    5-B1
  65   1.0000      -0.119193        -3.2434    6-B1
  66   1.0000      -0.118329        -3.2199   33-A1
  67   1.0000      -0.092825        -2.5259   34-A1
  68   1.0000      -0.072821        -1.9816   27-B2
  69   1.0000      -0.062916        -1.7120   35-A1
  70   1.0000      -0.062263        -1.6943   28-B2
  71   1.0000      -0.042857        -1.1662    7-B1
  72   1.0000      -0.039584        -1.0771    8-B1
  73   1.0000      -0.033479        -0.9110   29-B2
  74   1.0000      -0.031572        -0.8591   36-A1
  75   1.0000      -0.028941        -0.7875    3-A2
  76   1.0000      -0.022044        -0.5998    4-A2
  77   1.0000      -0.005507        -0.1499    5-A2
  78   1.0000      -0.003183        -0.0866   37-A1
  79   1.0000      -0.001231        -0.0335    9-B1
  80   1.0000       0.015881         0.4322   38-A1
  81   1.0000       0.016946         0.4611   39-A1
  82   1.0000       0.032180         0.8757   30-B2
  83   1.0000       0.047528         1.2933    6-A2
  84   1.0000       0.049850         1.3565    7-A2
  85   1.0000       0.060234         1.6391   10-B1
  86   1.0000       0.085255         2.3199   11-B1
  87   1.0000       0.102348         2.7850   31-B2
  88   0.0000       0.165812         4.5120   40-A1
  89   0.0000       0.182821         4.9748   41-A1
  90   0.0000       0.191256         5.2043   32-B2
  91   0.0000       0.194458         5.2915   12-B1
  92   0.0000       0.197213         5.3664   33-B2

                 SPIN DOWN ORBITALS
  NO   OCC          E(Eh)            E(eV)    Irrep
   0   1.0000    -318.183799     -8658.2213    1-A1
   1   1.0000     -88.015994     -2395.0369    1-B2
   2   1.0000     -88.015985     -2395.0367    2-A1
   3   1.0000     -88.015614     -2395.0266    2-B2
   4   1.0000     -88.015602     -2395.0263    3-A1
   5   1.0000     -38.013283     -1034.3940    4-A1
   6   1.0000     -33.517150      -912.0480    3-B2
   7   1.0000     -33.516332      -912.0258    5-A1
   8   1.0000     -33.513336      -911.9442    1-B1
   9   1.0000      -9.852937      -268.1121    6-A1
  10   1.0000      -9.852393      -268.0973    4-B2
  11   1.0000      -9.836555      -267.6663    7-A1
  12   1.0000      -9.836224      -267.6573    5-B2
  13   1.0000      -9.835533      -267.6385    8-A1
  14   1.0000      -9.835204      -267.6295    6-B2
  15   1.0000      -9.831086      -267.5174    7-B2
  16   1.0000      -9.831082      -267.5173    9-A1
  17   1.0000      -9.812602      -267.0145   10-A1
  18   1.0000      -9.812211      -267.0038    8-B2
  19   1.0000      -9.796529      -266.5771    9-B2
  20   1.0000      -9.796527      -266.5771   11-A1
  21   1.0000      -7.584958      -206.3972   10-B2
  22   1.0000      -7.584949      -206.3970   12-A1
  23   1.0000      -7.584686      -206.3898   11-B2
  24   1.0000      -7.584676      -206.3895   13-A1
  25   1.0000      -5.508018      -149.8808   12-B2
  26   1.0000      -5.508017      -149.8808   14-A1
  27   1.0000      -5.507666      -149.8712   13-B2
  28   1.0000      -5.507665      -149.8712   15-A1
  29   1.0000      -5.501330      -149.6988   14-B2
  30   1.0000      -5.501330      -149.6988   16-A1
  31   1.0000      -5.501085      -149.6921   15-B2
  32   1.0000      -5.501084      -149.6921   17-A1
  33   1.0000      -5.500910      -149.6874    1-A2
  34   1.0000      -5.500910      -149.6874    2-B1
  35   1.0000      -5.500703      -149.6817    2-A2
  36   1.0000      -5.500702      -149.6817    3-B1
  37   1.0000      -3.992984      -108.6546   18-A1
  38   1.0000      -2.507492       -68.2323    4-B1
  39   1.0000      -2.506109       -68.1947   16-B2
  40   1.0000      -2.504538       -68.1519   19-A1
  41   1.0000      -0.597152       -16.2493   20-A1
  42   1.0000      -0.592056       -16.1107   21-A1
  43   1.0000      -0.516063       -14.0428   17-B2
  44   1.0000      -0.510483       -13.8909   22-A1
  45   1.0000      -0.501574       -13.6485   23-A1
  46   1.0000      -0.487323       -13.2607   18-B2
  47   1.0000      -0.411118       -11.1871   19-B2
  48   1.0000      -0.407391       -11.0857   20-B2
  49   1.0000      -0.402745       -10.9592   24-A1
  50   1.0000      -0.388483       -10.5712   25-A1
  51   1.0000      -0.354493        -9.6462   26-A1
  52   1.0000      -0.312314        -8.4985   21-B2
  53   1.0000      -0.308341        -8.3904   27-A1
  54   1.0000      -0.283159        -7.7051   22-B2
  55   1.0000      -0.240257        -6.5377   28-A1
  56   1.0000      -0.230011        -6.2589   23-B2
  57   1.0000      -0.218548        -5.9470   29-A1
  58   1.0000      -0.194044        -5.2802   30-A1
  59   1.0000      -0.190320        -5.1789   31-A1
  60   1.0000      -0.175465        -4.7747   24-B2
  61   1.0000      -0.137386        -3.7385   25-B2
  62   1.0000      -0.128716        -3.5026   32-A1
  63   1.0000      -0.120587        -3.2813   26-B2
  64   1.0000      -0.120490        -3.2787    5-B1
  65   1.0000      -0.119005        -3.2383    6-B1
  66   1.0000      -0.117674        -3.2021   33-A1
  67   1.0000      -0.091146        -2.4802   34-A1
  68   1.0000      -0.068842        -1.8733   27-B2
  69   1.0000      -0.061327        -1.6688   35-A1
  70   1.0000      -0.050344        -1.3699   28-B2
  71   1.0000      -0.041279        -1.1233    7-B1
  72   1.0000      -0.038284        -1.0418    8-B1
  73   1.0000      -0.025914        -0.7052    3-A2
  74   1.0000      -0.024704        -0.6722   36-A1
  75   1.0000      -0.021219        -0.5774    4-A2
  76   1.0000      -0.005064        -0.1378   29-B2
  77   1.0000       0.004203         0.1144    5-A2
  78   1.0000       0.007696         0.2094   37-A1
  79   1.0000       0.011085         0.3016    9-B1
  80   1.0000       0.023559         0.6411   38-A1
  81   1.0000       0.031758         0.8642   39-A1
  82   1.0000       0.040473         1.1013   30-B2
  83   1.0000       0.050409         1.3717    6-A2
  84   1.0000       0.055424         1.5082    7-A2
  85   1.0000       0.062078         1.6892   10-B1
  86   1.0000       0.089402         2.4328   11-B1
  87   0.0000       0.135373         3.6837   31-B2
  88   0.0000       0.166427         4.5287   40-A1
  89   0.0000       0.184003         5.0070   41-A1
  90   0.0000       0.192701         5.2437   32-B2
  91   0.0000       0.194424         5.2906   12-B1

MULLIKEN ATOMIC CHARGES AND SPIN POPULATIONS
--------------------------------------------
   0 Cu:    0.142961    0.376333
   1 S :   -0.439280    0.158623
   2 C :   -0.023703   -0.006873
   3 S :   -0.410058    0.166254
   4 C :    0.035473   -0.007818
   5 S :   -0.439280    0.158623
   6 C :   -0.023703   -0.006873
   7 S :   -0.410058    0.166254
   8 C :    0.035473   -0.007818
   9 C :   -0.062623   -0.000778
  10 C :   -0.062623   -0.000778
  11 C :   -0.270166   -0.000821
  12 H :   -0.052282    0.001368
  13 C :   -0.270166   -0.000821
  14 H :   -0.052282    0.001368
  15 H :    0.228966    0.000858
  16 H :    0.228966    0.000858
  17 C :   -0.552880   -0.002238
  18 C :   -0.552880   -0.002238
  19 C :   -0.105544   -0.001114
  20 H :    0.709598    0.002376
  21 C :   -0.105544   -0.001114
  22 H :    0.709598    0.002376
  23 H :   -0.128982    0.001997
  24 H :   -0.128982    0.001997
Sum of atomic charges         :   -2.0000000

LOEWDIN ATOMIC CHARGES AND SPIN POPULATIONS
-------------------------------------------
   0 Cu:   -0.891600    0.442641
   1 S :    0.027863    0.121027
   2 C :    0.032730    0.005677
   3 S :    0.003360    0.126682
   4 C :   -0.059233    0.004969
   5 S :    0.027863    0.121027
   6 C :    0.032730    0.005677
   7 S :    0.003360    0.126682
   8 C :   -0.059233    0.004969
   9 C :    0.267404    0.003861
  10 C :    0.267404    0.003861
  11 C :    0.405093   -0.000080
  12 H :   -0.315792    0.006486
  13 C :    0.405093   -0.000080
  14 H :   -0.315792    0.006486
  15 H :   -0.572731   -0.000020
  16 H :   -0.572731   -0.000020
  17 C :    0.530453    0.003933
  18 C :    0.530453    0.003933
  19 C :    0.239377   -0.000277
  20 H :   -0.898482    0.005257
  21 C :    0.239377   -0.000277
  22 H :   -0.898482    0.005257
  23 H :   -0.214243    0.001165
  24 H :   -0.214243    0.001165

  Mayer bond orders larger than 0.100000
B(  0-Cu,  1-S ) :   0.6974 B(  0-Cu,  3-S ) :   0.7048 B(  0-Cu,  5-S ) :   0.6974
B(  0-Cu,  7-S ) :   0.7048 B(  1-S ,  2-C ) :   1.1965 B(  2-C ,  6-C ) :   1.2461
B(  2-C , 17-C ) :   1.4010 B(  3-S ,  4-C ) :   1.1825 B(  4-C ,  8-C ) :   1.2395
B(  4-C , 10-C ) :   1.3172 B(  5-S ,  6-C ) :   1.1965 B(  6-C , 18-C ) :   1.4010
B(  7-S ,  8-C ) :   1.1825 B(  8-C ,  9-C ) :   1.3172 B(  9-C , 13-C ) :   1.3882
B(  9-C , 14-H ) :   1.0041 B( 10-C , 11-C ) :   1.3882 B( 10-C , 12-H ) :   1.0041
B( 11-C , 13-C ) :   1.3811 B( 11-C , 15-H ) :   0.8563 B( 13-C , 16-H ) :   0.8563
B( 17-C , 19-C ) :   1.4520 B( 17-C , 20-H ) :   0.2705 B( 18-C , 21-C ) :   1.4520
B( 18-C , 22-H ) :   0.2705 B( 19-C , 21-C ) :   1.3660 B( 19-C , 23-H ) :   0.9869
B( 21-C , 24-H ) :   0.9869

FINAL SINGLE POINT ENERGY     -3686.535977523904

DIPOLE MOMENT
-------------
                                X             Y             Z
Electronic contribution:      0.00000       0.00000      -1.22543
Nuclear contribution   :      0.00000      -0.00000       0.65272
                        -----------------------------------------
Total Dipole Moment    :      0.00000       0.00000      -0.57271
                        -----------------------------------------
Magnitude (a.u.)       :      0.57271
Magnitude (Debye)      :      1.45571

Rotational constants in cm-1:     0.033440     0.004803     0.004200
Rotational constants in MHz :  1002.512281   143.991319   125.907207

                             ****ORCA TERMINATED NORMALLY****
TOTAL RUN TIME: 0 days 5 hours 50 minutes 31 seconds 674 msec
