                         Program Version 5.0.4 -  RELEASE  -
|  1> ! RIJCOSX nofrozencore ReducedPop printbasis
|  2> ! M06L ano-rcc-dzp autoaux
|  3>
|  4> %maxcore 5000
|  5> %basis
|  6> PCDTrimBas overlap
|  7> PCDTrimAuxJ Coulomb
|  8> PCDTrimAuxJK Coulomb
|  9> PCDTrimAuxC Coulomb
| 10> PCDThresh -1
| 11> end
| 12>
| 13> %basis
| 14> newgto Cu "ano-rcc-tzp" end
| 15> newgto S "ano-rcc-tzp" end
| 16> end
| 17>
| 18> %pal
| 19> nprocs 12
| 20> end
| 21>
| 22> % sym SymThresh 1e-2 end
| 23> * xyz -2 2
| 24> Cu 8.406604253470794e-05 4.997487666496222e-05 0.00019667336422320763
| 25> S -1.673698553875446 -1.1652742590882028 -1.0957883730318003
| 26> C -1.3967417217154656 -0.8573297186043012 -2.8205373984158033
| 27> S -0.7795829609463238 -0.698657134088047 2.0707280778458186
| 28> C 0.30105820686064416 0.028951243137595502 3.1882492306375045
| 29> S 0.784525144668261 0.7017704447167393 -2.0620686649911333
| 30> C -0.309778419834352 -0.03186217775178324 -3.246284830180932
| 31> S 1.6737888013245057 1.1646346139987367 1.1074786212138306
| 32> C 1.3773044842680944 0.8466699988685223 2.760242211837029
| 33> C 2.254214897216096 1.4337147986112935 3.7231969983687407
| 34> C 0.0775433797477105 -0.21945088410390068 4.578185100779928
| 35> C 0.9411566395457066 0.35291119172988983 5.622255763992583
| 36> H -0.810856342973517 -0.8796955561785348 4.6872582028670395
| 37> C 2.099803920991398 1.232697406810278 5.170417007962255
| 38> H 3.0219581676724236 2.031101004622477 3.185010285517535
| 39> H 0.7005910684898186 0.11287572046519863 6.6659434865836324
| 40> H 2.8242403066534845 1.72577979019641 5.831643077936137
| 41> C -2.191591516535379 -1.3820580171836085 -3.8155941012326857
| 42> C -0.1809026239910522 0.1450571614487951 -4.605584455461388
| 43> C -1.9609704070948413 -1.1359549303481473 -5.080892569024564
| 44> H -3.0699678595967694 -2.0357118779773793 -3.693538691305486
| 45> C -1.005049442446122 -0.4098598702222637 -5.457703515659414
| 46> H 0.5843071338912106 0.739734057918577 -5.1297764222682405
| 47> H -2.5795806726080976 -1.5434702021943916 -5.869668442514428
| 48> H -0.9081260857489329 -0.2739905808810466 -6.526580284175533
| 49> *
| 50>
| 51> % eprnmr
| 52> gtensor true
| 53> Nuclei = all H {aiso,adip,aorb,fgrad,rho}
| 54> Nuclei = all Cu {aiso,adip,aorb,fgrad,rho}
| 55> end
| 56>
| 57>                          ****END OF INPUT****

CARTESIAN COORDINATES (ANGSTROEM)
---------------------------------
  Cu     0.000000    0.000000    0.000217
  S     -1.617283    0.000000   -1.656617
  C     -0.714868    0.000000   -3.182342
  S     -1.613903    0.000000    1.667164
  C     -0.708897    0.000000    3.121224
  S      1.617283    0.000000   -1.656617
  C      0.714868    0.000000   -3.182342
  S      1.613903    0.000000    1.667164
  C      0.708897    0.000000    3.121224
  C      1.431944    0.000000    4.353862
  C     -1.431944    0.000000    4.353862
  C     -0.761681    0.000000    5.662230
  H     -2.520909    0.000000    4.128780
  C      0.761681    0.000000    5.662230
  H      2.520909    0.000000    4.128780
  H     -1.397086    0.000000    6.557338
  H      1.397086    0.000000    6.557338
  C     -1.322784    0.000000   -4.418007
  C      1.322784    0.000000   -4.418007
  C     -0.629084    0.000000   -5.528309
  H     -2.404143    0.000000   -4.628956
  C      0.629084    0.000000   -5.528309
  H      2.404143    0.000000   -4.628956
  H     -1.099645    0.000000   -6.502581
  H      1.099645    0.000000   -6.502581

 Total Charge           Charge          ....   -2
 Multiplicity           Mult            ....    2
 Number of Electrons    NEL             ....  175
 Basis Dimension        Dim             ....  475

ORBITAL ENERGIES
----------------
                 SPIN UP ORBITALS
  NO   OCC          E(Eh)            E(eV)    Irrep
   0   1.0000    -318.182226     -8658.1785    1-A1
   1   1.0000     -88.015582     -2395.0257    1-B1
   2   1.0000     -88.015573     -2395.0255    2-A1
   3   1.0000     -88.014684     -2395.0013    2-B1
   4   1.0000     -88.014670     -2395.0009    3-A1
   5   1.0000     -38.027401     -1034.7782    4-A1
   6   1.0000     -33.530543      -912.4125    3-B1
   7   1.0000     -33.529699      -912.3895    5-A1
   8   1.0000     -33.515911      -912.0143    1-B2
   9   1.0000      -9.848689      -267.9964    6-A1
  10   1.0000      -9.848561      -267.9930    4-B1
  11   1.0000      -9.835076      -267.6260    7-A1
  12   1.0000      -9.834766      -267.6176    5-B1
  13   1.0000      -9.831709      -267.5344    8-A1
  14   1.0000      -9.831361      -267.5249    6-B1
  15   1.0000      -9.828877      -267.4574    7-B1
  16   1.0000      -9.828875      -267.4573    9-A1
  17   1.0000      -9.808028      -266.8900    8-B1
  18   1.0000      -9.808023      -266.8899   10-A1
  19   1.0000      -9.797015      -266.5903   11-A1
  20   1.0000      -9.795584      -266.5514    9-B1
  21   1.0000      -7.584171      -206.3758   10-B1
  22   1.0000      -7.584160      -206.3755   12-A1
  23   1.0000      -7.583551      -206.3589   11-B1
  24   1.0000      -7.583542      -206.3587   13-A1
  25   1.0000      -5.507102      -149.8559   12-B1
  26   1.0000      -5.507101      -149.8558   14-A1
  27   1.0000      -5.507027      -149.8538   13-B1
  28   1.0000      -5.507027      -149.8538   15-A1
  29   1.0000      -5.502017      -149.7175   14-B1
  30   1.0000      -5.502017      -149.7175   16-A1
  31   1.0000      -5.501511      -149.7037   15-B1
  32   1.0000      -5.501511      -149.7037   17-A1
  33   1.0000      -5.500368      -149.6726    1-A2
  34   1.0000      -5.500368      -149.6726    2-B2
  35   1.0000      -5.499475      -149.6483    2-A2
  36   1.0000      -5.499475      -149.6483    3-B2
  37   1.0000      -4.024993      -109.5256   18-A1
  38   1.0000      -2.546433       -69.2920   16-B1
  39   1.0000      -2.544901       -69.2503   19-A1
  40   1.0000      -2.517461       -68.5036    4-B2
  41   1.0000      -0.621366       -16.9082   20-A1
  42   1.0000      -0.570716       -15.5300   21-A1
  43   1.0000      -0.515303       -14.0221   22-A1
  44   1.0000      -0.499605       -13.5949   17-B1
  45   1.0000      -0.489202       -13.3119   23-A1
  46   1.0000      -0.484865       -13.1938   18-B1
  47   1.0000      -0.410309       -11.1651   19-B1
  48   1.0000      -0.404850       -11.0165   20-B1
  49   1.0000      -0.395797       -10.7702   24-A1
  50   1.0000      -0.376088       -10.2339   25-A1
  51   1.0000      -0.329693        -8.9714   26-A1
  52   1.0000      -0.315529        -8.5860   27-A1
  53   1.0000      -0.302318        -8.2265   21-B1
  54   1.0000      -0.296485        -8.0678   22-B1
  55   1.0000      -0.250834        -6.8256   28-A1
  56   1.0000      -0.212651        -5.7865   29-A1
  57   1.0000      -0.202143        -5.5006   30-A1
  58   1.0000      -0.174205        -4.7403   31-A1
  59   1.0000      -0.171502        -4.6668   23-B1
  60   1.0000      -0.168825        -4.5940   24-B1
  61   1.0000      -0.144557        -3.9336   25-B1
  62   1.0000      -0.140576        -3.8253   26-B1
  63   1.0000      -0.138249        -3.7619    5-B2
  64   1.0000      -0.130627        -3.5545   32-A1
  65   1.0000      -0.111639        -3.0379   33-A1
  66   1.0000      -0.105140        -2.8610    6-B2
  67   1.0000      -0.083619        -2.2754   34-A1
  68   1.0000      -0.069100        -1.8803   27-B1
  69   1.0000      -0.064984        -1.7683   28-B1
  70   1.0000      -0.060663        -1.6507   35-A1
  71   1.0000      -0.045928        -1.2498    7-B2
  72   1.0000      -0.031808        -0.8655   29-B1
  73   1.0000      -0.029807        -0.8111   36-A1
  74   1.0000      -0.029738        -0.8092    8-B2
  75   1.0000      -0.028069        -0.7638    3-A2
  76   1.0000      -0.020504        -0.5579    4-A2
  77   1.0000      -0.003021        -0.0822    5-A2
  78   1.0000      -0.001432        -0.0390   37-A1
  79   1.0000       0.000765         0.0208    9-B2
  80   1.0000       0.017396         0.4734   38-A1
  81   1.0000       0.018431         0.5015   39-A1
  82   1.0000       0.034090         0.9276   30-B1
  83   1.0000       0.049957         1.3594    6-A2
  84   1.0000       0.052000         1.4150    7-A2
  85   1.0000       0.061705         1.6791   10-B2
  86   1.0000       0.087259         2.3744   11-B2
  87   1.0000       0.104314         2.8385   31-B1
  88   0.0000       0.175703         4.7811   40-A1
  89   0.0000       0.185806         5.0560   41-A1
  90   0.0000       0.194269         5.2863   32-B1
  91   0.0000       0.194362         5.2889   12-B2
  92   0.0000       0.195316         5.3148    8-A2

                 SPIN DOWN ORBITALS
  NO   OCC          E(Eh)            E(eV)    Irrep
   0   1.0000    -318.182052     -8658.1738    1-A1
   1   1.0000     -88.014484     -2394.9959    1-B1
   2   1.0000     -88.014475     -2394.9956    2-A1
   3   1.0000     -88.013645     -2394.9730    2-B1
   4   1.0000     -88.013631     -2394.9727    3-A1
   5   1.0000     -38.011531     -1034.3463    4-A1
   6   1.0000     -33.515382      -911.9999    3-B1
   7   1.0000     -33.514569      -911.9778    5-A1
   8   1.0000     -33.511586      -911.8966    1-B2
   9   1.0000      -9.848654      -267.9955    6-A1
  10   1.0000      -9.848527      -267.9920    4-B1
  11   1.0000      -9.835195      -267.6292    7-A1
  12   1.0000      -9.834884      -267.6208    5-B1
  13   1.0000      -9.831822      -267.5375    8-A1
  14   1.0000      -9.831474      -267.5280    6-B1
  15   1.0000      -9.828793      -267.4551    7-B1
  16   1.0000      -9.828791      -267.4550    9-A1
  17   1.0000      -9.807980      -266.8887    8-B1
  18   1.0000      -9.807974      -266.8886   10-A1
  19   1.0000      -9.796997      -266.5898   11-A1
  20   1.0000      -9.795566      -266.5509    9-B1
  21   1.0000      -7.583457      -206.3564   10-B1
  22   1.0000      -7.583446      -206.3561   12-A1
  23   1.0000      -7.582798      -206.3384   11-B1
  24   1.0000      -7.582790      -206.3382   13-A1
  25   1.0000      -5.506189      -149.8310   12-B1
  26   1.0000      -5.506189      -149.8310   14-A1
  27   1.0000      -5.506084      -149.8282   13-B1
  28   1.0000      -5.506084      -149.8282   15-A1
  29   1.0000      -5.499842      -149.6583   14-B1
  30   1.0000      -5.499842      -149.6583   16-A1
  31   1.0000      -5.499572      -149.6510    1-A2
  32   1.0000      -5.499572      -149.6510    2-B2
  33   1.0000      -5.499194      -149.6407   15-B1
  34   1.0000      -5.499193      -149.6407   17-A1
  35   1.0000      -5.498643      -149.6257    2-A2
  36   1.0000      -5.498643      -149.6257    3-B2
  37   1.0000      -3.991258      -108.6076   18-A1
  38   1.0000      -2.505754       -68.1850    4-B2
  39   1.0000      -2.504369       -68.1473   16-B1
  40   1.0000      -2.502815       -68.1051   19-A1
  41   1.0000      -0.621204       -16.9038   20-A1
  42   1.0000      -0.569983       -15.5100   21-A1
  43   1.0000      -0.514115       -13.9898   22-A1
  44   1.0000      -0.498984       -13.5780   17-B1
  45   1.0000      -0.488019       -13.2797   23-A1
  46   1.0000      -0.483235       -13.1495   18-B1
  47   1.0000      -0.405939       -11.0462   19-B1
  48   1.0000      -0.401409       -10.9229   20-B1
  49   1.0000      -0.392534       -10.6814   24-A1
  50   1.0000      -0.373122       -10.1532   25-A1
  51   1.0000      -0.328221        -8.9313   26-A1
  52   1.0000      -0.314152        -8.5485   27-A1
  53   1.0000      -0.300600        -8.1797   21-B1
  54   1.0000      -0.294075        -8.0022   22-B1
  55   1.0000      -0.250111        -6.8059   28-A1
  56   1.0000      -0.212002        -5.7689   29-A1
  57   1.0000      -0.201145        -5.4734   30-A1
  58   1.0000      -0.173313        -4.7161   31-A1
  59   1.0000      -0.170869        -4.6496   23-B1
  60   1.0000      -0.167972        -4.5708   24-B1
  61   1.0000      -0.143885        -3.9153   25-B1
  62   1.0000      -0.138965        -3.7814   26-B1
  63   1.0000      -0.138237        -3.7616    5-B2
  64   1.0000      -0.129313        -3.5188   32-A1
  65   1.0000      -0.110656        -3.0111   33-A1
  66   1.0000      -0.104701        -2.8491    6-B2
  67   1.0000      -0.082253        -2.2382   34-A1
  68   1.0000      -0.067434        -1.8350   27-B1
  69   1.0000      -0.059019        -1.6060   35-A1
  70   1.0000      -0.050536        -1.3751   28-B1
  71   1.0000      -0.044537        -1.2119    7-B2
  72   1.0000      -0.028200        -0.7673    8-B2
  73   1.0000      -0.025791        -0.7018    3-A2
  74   1.0000      -0.022985        -0.6254   36-A1
  75   1.0000      -0.018625        -0.5068    4-A2
  76   1.0000      -0.003306        -0.0900   29-B1
  77   1.0000       0.006535         0.1778    5-A2
  78   1.0000       0.009372         0.2550   37-A1
  79   1.0000       0.012889         0.3507    9-B2
  80   1.0000       0.024990         0.6800   38-A1
  81   1.0000       0.033425         0.9095   39-A1
  82   1.0000       0.042400         1.1538   30-B1
  83   1.0000       0.052769         1.4359    6-A2
  84   1.0000       0.057526         1.5654    7-A2
  85   1.0000       0.063631         1.7315   10-B2
  86   1.0000       0.091359         2.4860   11-B2
  87   0.0000       0.137306         3.7363   31-B1
  88   0.0000       0.176930         4.8145   40-A1
  89   0.0000       0.187047         5.0898   41-A1
  90   0.0000       0.194534         5.2935   12-B2
  91   0.0000       0.195688         5.3249    8-A2

MULLIKEN ATOMIC CHARGES AND SPIN POPULATIONS
--------------------------------------------
   0 Cu:    0.138507    0.375284
   1 S :   -0.444653    0.168095
   2 C :   -0.020416   -0.008252
   3 S :   -0.396570    0.157462
   4 C :    0.064000   -0.007751
   5 S :   -0.444653    0.168095
   6 C :   -0.020416   -0.008252
   7 S :   -0.396570    0.157462
   8 C :    0.064000   -0.007751
   9 C :   -0.110339   -0.000153
  10 C :   -0.110339   -0.000153
  11 C :   -0.209935   -0.000738
  12 H :    0.076490    0.001965
  13 C :   -0.209935   -0.000738
  14 H :    0.076490    0.001965
  15 H :    0.041798    0.001271
  16 H :    0.041798    0.001271
  17 C :   -0.099872   -0.000367
  18 C :   -0.099872   -0.000367
  19 C :   -0.004895   -0.000711
  20 H :    0.022869    0.000451
  21 C :   -0.004895   -0.000711
  22 H :    0.022869    0.000451
  23 H :    0.012271    0.001085
  24 H :    0.012271    0.001085
Sum of atomic charges         :   -2.0000000

LOEWDIN ATOMIC CHARGES AND SPIN POPULATIONS
-------------------------------------------
   0 Cu:   -0.892132    0.442157
   1 S :   -0.004464    0.130435
   2 C :   -0.022906    0.005265
   3 S :    0.029209    0.116936
   4 C :   -0.052902    0.004674
   5 S :   -0.004464    0.130435
   6 C :   -0.022906    0.005265
   7 S :    0.029209    0.116936
   8 C :   -0.052902    0.004674
   9 C :    0.314443    0.004583
  10 C :    0.314443    0.004583
  11 C :    0.335584    0.000076
  12 H :   -0.470634    0.008812
  13 C :    0.335584    0.000076
  14 H :   -0.470634    0.008812
  15 H :   -0.448403    0.000256
  16 H :   -0.448403    0.000256
  17 C :    0.290914    0.003533
  18 C :    0.290914    0.003533
  19 C :    0.258984   -0.000107
  20 H :   -0.400137    0.004246
  21 C :    0.258984   -0.000107
  22 H :   -0.400137    0.004246
  23 H :   -0.383622    0.000213
  24 H :   -0.383622    0.000213

  Mayer bond orders larger than 0.100000
B(  0-Cu,  1-S ) :   0.7055 B(  0-Cu,  3-S ) :   0.6973 B(  0-Cu,  5-S ) :   0.7055
B(  0-Cu,  7-S ) :   0.6973 B(  1-S ,  2-C ) :   1.1699 B(  2-C ,  6-C ) :   1.2590
B(  2-C , 17-C ) :   1.3384 B(  3-S ,  4-C ) :   1.2007 B(  4-C ,  8-C ) :   1.2328
B(  4-C , 10-C ) :   1.3052 B(  5-S ,  6-C ) :   1.1699 B(  6-C , 18-C ) :   1.3384
B(  7-S ,  8-C ) :   1.2007 B(  8-C ,  9-C ) :   1.3052 B(  9-C , 13-C ) :   1.3748
B(  9-C , 14-H ) :   0.9555 B( 10-C , 11-C ) :   1.3748 B( 10-C , 12-H ) :   0.9555
B( 11-C , 13-C ) :   1.3198 B( 11-C , 15-H ) :   0.9877 B( 13-C , 16-H ) :   0.9877
B( 17-C , 19-C ) :   1.3300 B( 17-C , 20-H ) :   0.9932 B( 18-C , 21-C ) :   1.3300
B( 18-C , 22-H ) :   0.9932 B( 19-C , 21-C ) :   1.3190 B( 19-C , 23-H ) :   0.9830
B( 21-C , 24-H ) :   0.9830

FINAL SINGLE POINT ENERGY     -3686.849694361442

DIPOLE MOMENT
-------------
                                X             Y             Z
Electronic contribution:      0.00000       0.00000       0.19185
Nuclear contribution   :      0.00000       0.00000      -0.83750
                        -----------------------------------------
Total Dipole Moment    :      0.00000       0.00000      -0.64566
                        -----------------------------------------
Magnitude (a.u.)       :      0.64566
Magnitude (Debye)      :      1.64113

Rotational constants in cm-1:     0.033405     0.004803     0.004200
Rotational constants in MHz :  1001.461960   144.000982   125.898011

                             ****ORCA TERMINATED NORMALLY****
TOTAL RUN TIME: 0 days 7 hours 18 minutes 9 seconds 370 msec
