                         Program Version 5.0.4 -  RELEASE  -
|  1> ! RIJCOSX nofrozencore ReducedPop printbasis
|  2> ! M06L ano-rcc-dzp autoaux
|  3>
|  4> %maxcore 5000
|  5> %basis
|  6> PCDTrimBas overlap
|  7> PCDTrimAuxJ Coulomb
|  8> PCDTrimAuxJK Coulomb
|  9> PCDTrimAuxC Coulomb
| 10> PCDThresh -1
| 11> end
| 12>
| 13> %basis
| 14> newgto Cu "ano-rcc-tzp" end
| 15> newgto S "ano-rcc-tzp" end
| 16> end
| 17>
| 18> %pal
| 19> nprocs 8
| 20> end
| 21>
| 22> % sym SymThresh 1e-2 end
| 23> * xyz -2 2
| 24> Cu 4.919137995938052e-06 -6.269029021302229e-06 5.788035634564544e-06
| 25> S 0.29412543067757074 -0.48802186543953807 -2.2445250235688277
| 26> C -0.6396927040509152 0.7109438008167873 -3.1397479458176587
| 27> S 1.3572370289192273 -1.7719035769430769 0.6306503700401976
| 28> C 1.3462232318218357 -1.6819103214501723 2.3562347217576924
| 29> S -1.3575085970631875 1.7722630979363108 -0.6306625108231239
| 30> C -1.3384357528449067 1.6717493182206944 -2.352485143574159
| 31> S -0.2940894714791879 0.4879988568934296 2.2450896141663916
| 32> C 0.639885545087474 -0.7117790493398666 3.126482338321607
| 33> C 0.7041362962077116 -0.7380410199965594 4.47514536072554
| 34> C 2.113477120818172 -2.6666557938053814 3.100059495676869
| 35> C 2.1508026862535568 -2.655231582037291 4.494228021485139
| 36> H 2.7336293366973403 -3.5050539649703536 2.7295910103014083
| 37> C 1.4366564324329034 -1.678321708385139 5.18266803335245
| 38> H 0.08196356513126991 0.10229401411352594 4.828630958794378
| 39> H 2.720680916490447 -3.3858773111855482 5.064431156475189
| 40> H 1.4254449692583895 -1.6160851340130646 6.266945329079386
| 41> C -0.7064313232315478 0.741180064481059 -4.472942486311464
| 42> C -2.1158807002304014 2.6698943910727335 -3.0988721500031047
| 43> C -1.4375060801521997 1.679603372551794 -5.1791161678261375
| 44> H -0.06307113199313674 -0.12465374366209049 -4.767099768706454
| 45> C -2.152977121685395 2.6581516791340656 -4.493377038231381
| 46> H -2.756857972129058 3.5335092125202947 -2.7831918143984726
| 47> H -1.4179088692688477 1.6062703848490276 -6.262898889435123
| 48> H -2.7197578843306855 3.384242834963277 -5.073831427115489
| 49> *
| 50>
| 51> % eprnmr
| 52> gtensor true
| 53> Nuclei = all H {aiso,adip,aorb,fgrad,rho}
| 54> Nuclei = all Cu {aiso,adip,aorb,fgrad,rho}
| 55> end
| 56>
| 57>                          ****END OF INPUT****

CARTESIAN COORDINATES (ANGSTROEM)
---------------------------------
  Cu    -0.000008    0.000006    0.000000
  S     -0.588973   -2.239571    0.000000
  C      0.921605   -3.150129    0.000000
  S     -2.225552    0.652971    0.000000
  C     -2.129958    2.378289    0.000000
  S      2.226003   -0.652988    0.000000
  C      2.117194   -2.374412    0.000000
  S      0.588939    2.240136    0.000000
  C     -0.922519    3.136867    0.000000
  C     -0.968794    4.486522    0.000000
  C     -3.370724    3.134713    0.000000
  C     -3.370249    4.529428    0.000000
  H     -4.417135    2.774476    0.000000
  C     -2.153508    5.206073    0.000000
  H      0.080212    4.829744    0.000000
  H     -4.291034    5.108988    0.000000
  H     -2.086315    6.290113    0.000000
  C      0.972703   -4.484357    0.000000
  C      3.374769   -3.133565    0.000000
  C      2.155078   -5.202535    0.000000
  H     -0.108828   -4.767904    0.000000
  C      3.373898   -4.528613    0.000000
  H      4.453307   -2.828456    0.000000
  H      2.073982   -6.285942    0.000000
  H      4.289080   -5.118373    0.000000

 Total Charge           Charge          ....   -2
 Multiplicity           Mult            ....    2
 Number of Electrons    NEL             ....  175
 Basis Dimension        Dim             ....  475

ORBITAL ENERGIES
----------------
                 SPIN UP ORBITALS
  NO   OCC          E(Eh)            E(eV)    Irrep
   0   1.0000    -318.182613     -8658.1891    1-A'
   1   1.0000     -88.018818     -2395.1138    2-A'
   2   1.0000     -88.017839     -2395.0872    3-A'
   3   1.0000     -88.013274     -2394.9629    4-A'
   4   1.0000     -88.012751     -2394.9487    5-A'
   5   1.0000     -38.027775     -1034.7884    6-A'
   6   1.0000     -33.530913      -912.4225    7-A'
   7   1.0000     -33.530078      -912.3998    8-A'
   8   1.0000     -33.516273      -912.0241    1-A"
   9   1.0000      -9.842814      -267.8366    9-A'
  10   1.0000      -9.840521      -267.7742   10-A'
  11   1.0000      -9.826724      -267.3988   11-A'
  12   1.0000      -9.826170      -267.3837   12-A'
  13   1.0000      -9.825071      -267.3538   13-A'
  14   1.0000      -9.824773      -267.3457   14-A'
  15   1.0000      -9.824588      -267.3406   15-A'
  16   1.0000      -9.823550      -267.3124   16-A'
  17   1.0000      -9.823374      -267.3076   17-A'
  18   1.0000      -9.823227      -267.3036   18-A'
  19   1.0000      -9.812802      -267.0199   19-A'
  20   1.0000      -9.812111      -267.0011   20-A'
  21   1.0000      -7.587588      -206.4688   21-A'
  22   1.0000      -7.586604      -206.4420   22-A'
  23   1.0000      -7.581878      -206.3134   23-A'
  24   1.0000      -7.581299      -206.2976   24-A'
  25   1.0000      -5.510677      -149.9532   25-A'
  26   1.0000      -5.509714      -149.9269   26-A'
  27   1.0000      -5.505462      -149.8112   27-A'
  28   1.0000      -5.505174      -149.8034   28-A'
  29   1.0000      -5.504628      -149.7886   29-A'
  30   1.0000      -5.504486      -149.7847   30-A'
  31   1.0000      -5.503819      -149.7665    2-A"
  32   1.0000      -5.502797      -149.7387    3-A"
  33   1.0000      -5.499869      -149.6591   31-A'
  34   1.0000      -5.499314      -149.6439   32-A'
  35   1.0000      -5.497789      -149.6024    4-A"
  36   1.0000      -5.497161      -149.5854    5-A"
  37   1.0000      -4.025348      -109.5353   33-A'
  38   1.0000      -2.546786       -69.3016   34-A'
  39   1.0000      -2.545277       -69.2605   35-A'
  40   1.0000      -2.517792       -68.5126    6-A"
  41   1.0000      -0.591711       -16.1013   36-A'
  42   1.0000      -0.590779       -16.0759   37-A'
  43   1.0000      -0.506825       -13.7914   38-A'
  44   1.0000      -0.505618       -13.7586   39-A'
  45   1.0000      -0.490545       -13.3484   40-A'
  46   1.0000      -0.490415       -13.3449   41-A'
  47   1.0000      -0.411574       -11.1995   42-A'
  48   1.0000      -0.409203       -11.1350   43-A'
  49   1.0000      -0.387667       -10.5490   44-A'
  50   1.0000      -0.381378       -10.3778   45-A'
  51   1.0000      -0.323832        -8.8119   46-A'
  52   1.0000      -0.321667        -8.7530   47-A'
  53   1.0000      -0.298832        -8.1316   48-A'
  54   1.0000      -0.296185        -8.0596   49-A'
  55   1.0000      -0.232093        -6.3156   50-A'
  56   1.0000      -0.226703        -6.1689   51-A'
  57   1.0000      -0.199257        -5.4221   52-A'
  58   1.0000      -0.196887        -5.3576   53-A'
  59   1.0000      -0.166400        -4.5280   54-A'
  60   1.0000      -0.161162        -4.3854   55-A'
  61   1.0000      -0.143627        -3.9083   56-A'
  62   1.0000      -0.141532        -3.8513   57-A'
  63   1.0000      -0.130023        -3.5381   58-A'
  64   1.0000      -0.118559        -3.2262    7-A"
  65   1.0000      -0.117966        -3.2100    8-A"
  66   1.0000      -0.111238        -3.0269   59-A'
  67   1.0000      -0.080814        -2.1991   60-A'
  68   1.0000      -0.070575        -1.9204   61-A'
  69   1.0000      -0.066405        -1.8070   62-A'
  70   1.0000      -0.057635        -1.5683   63-A'
  71   1.0000      -0.039841        -1.0841    9-A"
  72   1.0000      -0.038289        -1.0419   10-A"
  73   1.0000      -0.035747        -0.9727   64-A'
  74   1.0000      -0.027616        -0.7515   11-A"
  75   1.0000      -0.026844        -0.7305   65-A'
  76   1.0000      -0.020592        -0.5603   12-A"
  77   1.0000      -0.004362        -0.1187   13-A"
  78   1.0000      -0.001402        -0.0381   66-A'
  79   1.0000       0.000890         0.0242   14-A"
  80   1.0000       0.017502         0.4763   67-A'
  81   1.0000       0.017870         0.4863   68-A'
  82   1.0000       0.033771         0.9189   69-A'
  83   1.0000       0.049497         1.3469   15-A"
  84   1.0000       0.051613         1.4045   16-A"
  85   1.0000       0.061901         1.6844   17-A"
  86   1.0000       0.086779         2.3614   18-A"
  87   1.0000       0.103957         2.8288   70-A'
  88   0.0000       0.180904         4.9227   71-A'
  89   0.0000       0.181077         4.9274   72-A'
  90   0.0000       0.196752         5.3539   73-A'
  91   0.0000       0.196961         5.3596   74-A'
  92   0.0000       0.197764         5.3814   19-A"

                 SPIN DOWN ORBITALS
  NO   OCC          E(Eh)            E(eV)    Irrep
   0   1.0000    -318.182439     -8658.1843    1-A'
   1   1.0000     -88.017731     -2395.0842    2-A'
   2   1.0000     -88.016757     -2395.0577    3-A'
   3   1.0000     -88.012214     -2394.9341    4-A'
   4   1.0000     -88.011701     -2394.9201    5-A'
   5   1.0000     -38.011902     -1034.3565    6-A'
   6   1.0000     -33.515749      -912.0099    7-A'
   7   1.0000     -33.514947      -911.9881    8-A'
   8   1.0000     -33.511948      -911.9065    1-A"
   9   1.0000      -9.842939      -267.8400    9-A'
  10   1.0000      -9.840643      -267.7775   10-A'
  11   1.0000      -9.826834      -267.4018   11-A'
  12   1.0000      -9.826120      -267.3823   12-A'
  13   1.0000      -9.825181      -267.3568   13-A'
  14   1.0000      -9.824737      -267.3447   14-A'
  15   1.0000      -9.824555      -267.3397   15-A'
  16   1.0000      -9.823502      -267.3111   16-A'
  17   1.0000      -9.823354      -267.3071   17-A'
  18   1.0000      -9.823211      -267.3032   18-A'
  19   1.0000      -9.812722      -267.0177   19-A'
  20   1.0000      -9.812020      -266.9986   20-A'
  21   1.0000      -7.586842      -206.4485   21-A'
  22   1.0000      -7.585863      -206.4218   22-A'
  23   1.0000      -7.581159      -206.2938   23-A'
  24   1.0000      -7.580588      -206.2783   24-A'
  25   1.0000      -5.509740      -149.9277   25-A'
  26   1.0000      -5.508779      -149.9015   26-A'
  27   1.0000      -5.504254      -149.7784   27-A'
  28   1.0000      -5.503719      -149.7638   28-A'
  29   1.0000      -5.503169      -149.7488   29-A'
  30   1.0000      -5.502984      -149.7438    2-A"
  31   1.0000      -5.502212      -149.7228   30-A'
  32   1.0000      -5.501969      -149.7162    3-A"
  33   1.0000      -5.497663      -149.5990   31-A'
  34   1.0000      -5.497130      -149.5845   32-A'
  35   1.0000      -5.496987      -149.5806    4-A"
  36   1.0000      -5.496369      -149.5638    5-A"
  37   1.0000      -3.991611      -108.6173   33-A'
  38   1.0000      -2.506076       -68.1938    6-A"
  39   1.0000      -2.504724       -68.1570   34-A'
  40   1.0000      -2.503194       -68.1154   35-A'
  41   1.0000      -0.591346       -16.0913   36-A'
  42   1.0000      -0.590413       -16.0660   37-A'
  43   1.0000      -0.505670       -13.7600   38-A'
  44   1.0000      -0.504471       -13.7273   39-A'
  45   1.0000      -0.489258       -13.3134   40-A'
  46   1.0000      -0.489218       -13.3123   41-A'
  47   1.0000      -0.407864       -11.0986   42-A'
  48   1.0000      -0.405454       -11.0330   43-A'
  49   1.0000      -0.384216       -10.4550   44-A'
  50   1.0000      -0.378061       -10.2876   45-A'
  51   1.0000      -0.322293        -8.7700   46-A'
  52   1.0000      -0.319925        -8.7056   47-A'
  53   1.0000      -0.297239        -8.0883   48-A'
  54   1.0000      -0.294233        -8.0065   49-A'
  55   1.0000      -0.231499        -6.2994   50-A'
  56   1.0000      -0.225996        -6.1497   51-A'
  57   1.0000      -0.198268        -5.3952   52-A'
  58   1.0000      -0.195911        -5.3310   53-A'
  59   1.0000      -0.165710        -4.5092   54-A'
  60   1.0000      -0.160114        -4.3569   55-A'
  61   1.0000      -0.142777        -3.8852   56-A'
  62   1.0000      -0.140412        -3.8208   57-A'
  63   1.0000      -0.128646        -3.5006   58-A'
  64   1.0000      -0.118381        -3.2213    7-A"
  65   1.0000      -0.117780        -3.2050    8-A"
  66   1.0000      -0.110203        -2.9988   59-A'
  67   1.0000      -0.079066        -2.1515   60-A'
  68   1.0000      -0.069085        -1.8799   61-A'
  69   1.0000      -0.056027        -1.5246   62-A'
  70   1.0000      -0.053000        -1.4422   63-A'
  71   1.0000      -0.037872        -1.0305    9-A"
  72   1.0000      -0.037395        -1.0176   10-A"
  73   1.0000      -0.024481        -0.6662   11-A"
  74   1.0000      -0.022427        -0.6103   64-A'
  75   1.0000      -0.019742        -0.5372   12-A"
  76   1.0000      -0.003597        -0.0979   65-A'
  77   1.0000       0.005632         0.1533   13-A"
  78   1.0000       0.009410         0.2560   66-A'
  79   1.0000       0.012930         0.3518   14-A"
  80   1.0000       0.024672         0.6714   67-A'
  81   1.0000       0.033110         0.9010   68-A'
  82   1.0000       0.042077         1.1450   69-A'
  83   1.0000       0.052334         1.4241   15-A"
  84   1.0000       0.057163         1.5555   16-A"
  85   1.0000       0.063714         1.7337   17-A"
  86   1.0000       0.090920         2.4741   18-A"
  87   0.0000       0.136998         3.7279   70-A'
  88   0.0000       0.182363         4.9624   71-A'
  89   0.0000       0.182443         4.9645   72-A'
  90   0.0000       0.197932         5.3860   19-A"
  91   0.0000       0.198787         5.4093   73-A'

MULLIKEN ATOMIC CHARGES AND SPIN POPULATIONS
--------------------------------------------
   0 Cu:    0.139876    0.375515
   1 S :   -0.448025    0.159771
   2 C :    0.093917   -0.007227
   3 S :   -0.398086    0.164524
   4 C :   -0.001802   -0.008732
   5 S :   -0.391317    0.165062
   6 C :   -0.004722   -0.009217
   7 S :   -0.443810    0.161248
   8 C :    0.074766   -0.007089
   9 C :   -0.095528    0.000167
  10 C :   -0.112074   -0.000865
  11 C :   -0.097249   -0.000113
  12 H :    0.044801    0.000650
  13 C :   -0.174478   -0.001551
  14 H :    0.071986    0.002005
  15 H :    0.031396    0.001449
  16 H :    0.030771    0.000830
  17 C :   -0.099091    0.001287
  18 C :   -0.119083   -0.000507
  19 C :   -0.183462   -0.001727
  20 H :    0.069739    0.001824
  21 C :   -0.085996    0.000090
  22 H :    0.035553    0.000263
  23 H :    0.030405    0.000741
  24 H :    0.031511    0.001604
Sum of atomic charges         :   -2.0000000

LOEWDIN ATOMIC CHARGES AND SPIN POPULATIONS
-------------------------------------------
   0 Cu:   -0.891880    0.442284
   1 S :    0.027488    0.119526
   2 C :   -0.049941    0.004423
   3 S :    0.005257    0.126341
   4 C :   -0.031895    0.005095
   5 S :    0.003605    0.127157
   6 C :   -0.030147    0.004933
   7 S :    0.021299    0.121355
   8 C :   -0.046867    0.004771
   9 C :    0.289586    0.004154
  10 C :    0.313309    0.003984
  11 C :    0.306297    0.000323
  12 H :   -0.426271    0.003946
  13 C :    0.311616   -0.000435
  14 H :   -0.458534    0.009195
  15 H :   -0.413113    0.000480
  16 H :   -0.423640   -0.000057
  17 C :    0.282681    0.004385
  18 C :    0.313228    0.004060
  19 C :    0.310340   -0.000498
  20 H :   -0.461086    0.010265
  21 C :    0.303356    0.000481
  22 H :   -0.417642    0.003403
  23 H :   -0.425299   -0.000147
  24 H :   -0.411748    0.000578

  Mayer bond orders larger than 0.100000
B(  0-Cu,  1-S ) :   0.7048 B(  0-Cu,  3-S ) :   0.7000 B(  0-Cu,  5-S ) :   0.6977
B(  0-Cu,  7-S ) :   0.7040 B(  1-S ,  2-C ) :   1.1415 B(  2-C ,  6-C ) :   1.2412
B(  2-C , 17-C ) :   1.3370 B(  3-S ,  4-C ) :   1.2090 B(  4-C ,  8-C ) :   1.2412
B(  4-C , 10-C ) :   1.3087 B(  5-S ,  6-C ) :   1.2148 B(  6-C , 18-C ) :   1.3038
B(  7-S ,  8-C ) :   1.1538 B(  8-C ,  9-C ) :   1.3332 B(  9-C , 13-C ) :   1.3526
B(  9-C , 14-H ) :   0.9556 B( 10-C , 11-C ) :   1.3678 B( 10-C , 12-H ) :   0.9823
B( 11-C , 13-C ) :   1.3426 B( 11-C , 15-H ) :   0.9856 B( 13-C , 16-H ) :   0.9918
B( 17-C , 19-C ) :   1.3518 B( 17-C , 20-H ) :   0.9525 B( 18-C , 21-C ) :   1.3704
B( 18-C , 22-H ) :   0.9850 B( 19-C , 21-C ) :   1.3423 B( 19-C , 23-H ) :   0.9928
B( 21-C , 24-H ) :   0.9846

FINAL SINGLE POINT ENERGY     -3686.885298636402

DIPOLE MOMENT
-------------
                                X             Y             Z
Electronic contribution:      0.01637       0.02786       0.00000
Nuclear contribution   :     -0.00629       0.00243       0.00000
                        -----------------------------------------
Total Dipole Moment    :      0.01009       0.03029       0.00000
                        -----------------------------------------
Magnitude (a.u.)       :      0.03193
Magnitude (Debye)      :      0.08116

Rotational constants in cm-1:     0.033419     0.004803     0.004200
Rotational constants in MHz :  1001.875861   143.997997   125.902268

                             ****ORCA TERMINATED NORMALLY****
TOTAL RUN TIME: 0 days 5 hours 42 minutes 23 seconds 412 msec
