                         Program Version 5.0.4 -  RELEASE  -
|  1> ! RIJCOSX nofrozencore ReducedPop printbasis
|  2> ! M06L ano-rcc-dzp autoaux
|  3>
|  4> %maxcore 5000
|  5> %basis
|  6> PCDTrimBas overlap
|  7> PCDTrimAuxJ Coulomb
|  8> PCDTrimAuxJK Coulomb
|  9> PCDTrimAuxC Coulomb
| 10> PCDThresh -1
| 11> end
| 12>
| 13> %basis
| 14> newgto Cu "ano-rcc-tzp" end
| 15> newgto S "ano-rcc-tzp" end
| 16> end
| 17>
| 18> %pal
| 19> nprocs 4
| 20> end
| 21>
| 22> % sym SymThresh 1e-2 end
| 23> * xyz -2 2
| 24> Cu -5.815591618001653e-07 4.84274649997584e-07 -6.53656641285015e-07
| 25> S 1.565580449459912 1.7026128168915908 -0.1495853048243145
| 26> C 1.1731612035162697 2.77516793684891 1.1714940027584528
| 27> S 1.0037093224041225 -1.1646068935700664 -1.7345374870939336
| 28> C -0.05169659475714443 -2.5294662417410296 -2.013261500713712
| 29> S -0.9887370817835772 1.1521392427058785 1.7513658773238163
| 30> C -0.07924726611378079 2.6385055219344857 1.8660841713619778
| 31> S -1.5805544347579426 -1.6901437132034531 0.13275495362450795
| 32> C -1.042201058988814 -2.884220776732566 -1.024298371020763
| 33> C -1.8185689151787319 -4.027844271504247 -1.2668034079978936
| 34> C 0.2964028007990922 -3.5051959253580294 -2.959941308804099
| 35> C -0.34292276043944514 -4.752468482977305 -3.019155644491518
| 36> H 1.1780877628668376 -3.3296997594677524 -3.5686165643898753
| 37> C -1.5994732554574205 -4.86028060466328 -2.3744918431433657
| 38> H -2.696714050806016 -4.18538166848071 -0.6481728370041707
| 39> H 0.027044524831295116 -5.538378034576091 -3.689888426283337
| 40> H -2.293595014676266 -5.678782720027052 -2.603930278384646
| 41> C 1.8884925074514756 3.9696166500959333 1.3453953323591485
| 42> C -0.3663304639859684 3.563426936688893 2.881344808846355
| 43> C 1.4609481893532683 4.975632889194104 2.2187934458158405
| 44> H 2.734187978514933 4.154176462858817 0.6902925099986532
| 45> C 0.48144840810275913 4.63711571417183 3.174854695475685
| 46> H -1.2156586374094764 3.3609866978220504 3.5263882126399473
| 47> H 1.9849088588431227 5.93583199686436 2.2569739789183108
| 48> H 0.2816624120083681 5.2813131103069155 4.036865129368076
| 49> *
| 50>
| 51> % eprnmr
| 52> gtensor true
| 53> Nuclei = all H {aiso,adip,aorb,fgrad,rho}
| 54> Nuclei = all Cu {aiso,adip,aorb,fgrad,rho}
| 55> end
| 56>
| 57>                          ****END OF INPUT****

CARTESIAN COORDINATES (ANGSTROEM)
---------------------------------
  Cu    -0.000000    0.000000   -0.000000
  S     -1.025373    1.248561    1.661931
  C     -0.366765    0.618788    3.151642
  S     -1.005357    1.264755   -1.661931
  C     -0.541821    0.477158   -3.151642
  S      1.025373   -1.248561    1.661931
  C      0.366765   -0.618788    3.151642
  S      1.005357   -1.264755   -1.661931
  C      0.541821   -0.477158   -3.151642
  C      0.917241   -1.030492   -4.385461
  C     -0.917241    1.030492   -4.385461
  C     -0.338072    0.622287   -5.596188
  H     -1.576510    1.892996   -4.375043
  C      0.338072   -0.622287   -5.596188
  H      1.576510   -1.892996   -4.375043
  H     -0.564447    1.152170   -6.530201
  H      0.564447   -1.152170   -6.530201
  C     -0.823765    1.106120    4.385460
  C      0.823765   -1.106120    4.385460
  C     -0.523252    0.472466    5.596188
  H     -1.526350    1.933578    4.375043
  C      0.523252   -0.472466    5.596188
  H      1.526350   -1.933578    4.375043
  H     -0.977110    0.818304    6.530201
  H      0.977110   -0.818304    6.530201

 Total Charge           Charge          ....   -2
 Multiplicity           Mult            ....    2
 Number of Electrons    NEL             ....  175
 Basis Dimension        Dim             ....  475

ORBITAL ENERGIES
----------------
                 SPIN UP ORBITALS
  NO   OCC          E(Eh)            E(eV)    Irrep
   0   1.0000    -318.181026     -8658.1459    1-A
   1   1.0000     -88.014901     -2395.0072    1-B
   2   1.0000     -88.014895     -2395.0071    2-A
   3   1.0000     -88.014657     -2395.0006    2-B
   4   1.0000     -88.014647     -2395.0003    3-A
   5   1.0000     -38.026209     -1034.7457    4-A
   6   1.0000     -33.529315      -912.3790    3-B
   7   1.0000     -33.528455      -912.3557    5-A
   8   1.0000     -33.514824      -911.9847    4-B
   9   1.0000      -9.833986      -267.5964    6-A
  10   1.0000      -9.833712      -267.5889    5-B
  11   1.0000      -9.833508      -267.5834    7-A
  12   1.0000      -9.833220      -267.5755    6-B
  13   1.0000      -9.829397      -267.4715    8-A
  14   1.0000      -9.829047      -267.4620    7-B
  15   1.0000      -9.827818      -267.4285    9-A
  16   1.0000      -9.827448      -267.4184    8-B
  17   1.0000      -9.818983      -267.1881    9-B
  18   1.0000      -9.818980      -267.1880   10-A
  19   1.0000      -9.818204      -267.1669   10-B
  20   1.0000      -9.818201      -267.1668   11-A
  21   1.0000      -7.583417      -206.3553   11-B
  22   1.0000      -7.583410      -206.3551   12-A
  23   1.0000      -7.583225      -206.3501   12-B
  24   1.0000      -7.583218      -206.3498   13-A
  25   1.0000      -5.506705      -149.8451   13-B
  26   1.0000      -5.506704      -149.8450   14-A
  27   1.0000      -5.506486      -149.8391   14-B
  28   1.0000      -5.506485      -149.8391   15-A
  29   1.0000      -5.501350      -149.6994   15-B
  30   1.0000      -5.501350      -149.6994   16-A
  31   1.0000      -5.501144      -149.6937   16-B
  32   1.0000      -5.501143      -149.6937   17-A
  33   1.0000      -5.499421      -149.6469   18-A
  34   1.0000      -5.499421      -149.6468   17-B
  35   1.0000      -5.499256      -149.6424   19-A
  36   1.0000      -5.499256      -149.6424   18-B
  37   1.0000      -4.023829      -109.4939   20-A
  38   1.0000      -2.545202       -69.2585   19-B
  39   1.0000      -2.543647       -69.2161   21-A
  40   1.0000      -2.516470       -68.4766   20-B
  41   1.0000      -0.587145       -15.9770   22-A
  42   1.0000      -0.586387       -15.9564   23-A
  43   1.0000      -0.501432       -13.6446   24-A
  44   1.0000      -0.499935       -13.6039   25-A
  45   1.0000      -0.488948       -13.3049   21-B
  46   1.0000      -0.488567       -13.2946   22-B
  47   1.0000      -0.408095       -11.1048   23-B
  48   1.0000      -0.405429       -11.0323   24-B
  49   1.0000      -0.385737       -10.4964   26-A
  50   1.0000      -0.378952       -10.3118   27-A
  51   1.0000      -0.318068        -8.6551   28-A
  52   1.0000      -0.315218        -8.5775   29-A
  53   1.0000      -0.300609        -8.1800   25-B
  54   1.0000      -0.297189        -8.0869   26-B
  55   1.0000      -0.230584        -6.2745   30-A
  56   1.0000      -0.225173        -6.1273   31-A
  57   1.0000      -0.185641        -5.0516   32-A
  58   1.0000      -0.184045        -5.0081   33-A
  59   1.0000      -0.179838        -4.8936   27-B
  60   1.0000      -0.176553        -4.8042   28-B
  61   1.0000      -0.149175        -4.0593   29-B
  62   1.0000      -0.146889        -3.9970   30-B
  63   1.0000      -0.130253        -3.5444   34-A
  64   1.0000      -0.113589        -3.0909   31-B
  65   1.0000      -0.113211        -3.0806   35-A
  66   1.0000      -0.112641        -3.0651   32-B
  67   1.0000      -0.084591        -2.3018   36-A
  68   1.0000      -0.072578        -1.9750   33-B
  69   1.0000      -0.067283        -1.8309   34-B
  70   1.0000      -0.059912        -1.6303   37-A
  71   1.0000      -0.034180        -0.9301   35-B
  72   1.0000      -0.033034        -0.8989   36-B
  73   1.0000      -0.030418        -0.8277   38-A
  74   1.0000      -0.030056        -0.8179   37-B
  75   1.0000      -0.025400        -0.6912   39-A
  76   1.0000      -0.016858        -0.4587   40-A
  77   1.0000      -0.002644        -0.0720   41-A
  78   1.0000       0.000336         0.0091   42-A
  79   1.0000       0.002950         0.0803   38-B
  80   1.0000       0.019149         0.5211   43-A
  81   1.0000       0.020738         0.5643   44-A
  82   1.0000       0.035172         0.9571   39-B
  83   1.0000       0.051150         1.3919   45-A
  84   1.0000       0.053308         1.4506   46-A
  85   1.0000       0.064429         1.7532   40-B
  86   1.0000       0.088736         2.4146   41-B
  87   1.0000       0.105775         2.8783   42-B
  88   0.0000       0.180171         4.9027   47-A
  89   0.0000       0.180670         4.9163   48-A
  90   0.0000       0.193777         5.2729   49-A
  91   0.0000       0.195348         5.3157   43-B
  92   0.0000       0.196071         5.3354   44-B

                 SPIN DOWN ORBITALS
  NO   OCC          E(Eh)            E(eV)    Irrep
   0   1.0000    -318.180852     -8658.1411    1-A
   1   1.0000     -88.013832     -2394.9781    1-B
   2   1.0000     -88.013826     -2394.9780    2-A
   3   1.0000     -88.013590     -2394.9715    2-B
   4   1.0000     -88.013579     -2394.9712    3-A
   5   1.0000     -38.010385     -1034.3152    4-A
   6   1.0000     -33.514200      -911.9677    3-B
   7   1.0000     -33.513375      -911.9453    5-A
   8   1.0000     -33.510504      -911.8672    4-B
   9   1.0000      -9.834094      -267.5993    6-A
  10   1.0000      -9.833819      -267.5918    5-B
  11   1.0000      -9.833618      -267.5864    7-A
  12   1.0000      -9.833329      -267.5785    6-B
  13   1.0000      -9.829377      -267.4709    8-A
  14   1.0000      -9.829027      -267.4614    7-B
  15   1.0000      -9.827798      -267.4280    9-A
  16   1.0000      -9.827427      -267.4179    8-B
  17   1.0000      -9.818923      -267.1865    9-B
  18   1.0000      -9.818920      -267.1864   10-A
  19   1.0000      -9.818144      -267.1653   10-B
  20   1.0000      -9.818141      -267.1652   11-A
  21   1.0000      -7.582684      -206.3353   11-B
  22   1.0000      -7.582678      -206.3351   12-A
  23   1.0000      -7.582495      -206.3302   12-B
  24   1.0000      -7.582488      -206.3300   13-A
  25   1.0000      -5.505788      -149.8201   13-B
  26   1.0000      -5.505787      -149.8201   14-A
  27   1.0000      -5.505568      -149.8141   14-B
  28   1.0000      -5.505567      -149.8141   15-A
  29   1.0000      -5.499120      -149.6387   15-B
  30   1.0000      -5.499120      -149.6387   16-A
  31   1.0000      -5.498911      -149.6330   16-B
  32   1.0000      -5.498911      -149.6330   17-A
  33   1.0000      -5.498579      -149.6239   18-A
  34   1.0000      -5.498579      -149.6239   17-B
  35   1.0000      -5.498427      -149.6198   19-A
  36   1.0000      -5.498427      -149.6198   18-B
  37   1.0000      -3.990216      -108.5793   20-A
  38   1.0000      -2.504782       -68.1586   19-B
  39   1.0000      -2.503283       -68.1178   20-B
  40   1.0000      -2.501728       -68.0755   21-A
  41   1.0000      -0.586766       -15.9667   22-A
  42   1.0000      -0.586001       -15.9459   23-A
  43   1.0000      -0.500075       -13.6077   24-A
  44   1.0000      -0.498625       -13.5683   25-A
  45   1.0000      -0.487888       -13.2761   21-B
  46   1.0000      -0.487519       -13.2661   22-B
  47   1.0000      -0.404142       -10.9973   23-B
  48   1.0000      -0.401383       -10.9222   24-B
  49   1.0000      -0.382519       -10.4089   26-A
  50   1.0000      -0.375778       -10.2254   27-A
  51   1.0000      -0.316894        -8.6231   28-A
  52   1.0000      -0.313769        -8.5381   29-A
  53   1.0000      -0.298838        -8.1318   25-B
  54   1.0000      -0.294998        -8.0273   26-B
  55   1.0000      -0.230007        -6.2588   30-A
  56   1.0000      -0.224464        -6.1080   31-A
  57   1.0000      -0.184682        -5.0254   32-A
  58   1.0000      -0.183131        -4.9832   33-A
  59   1.0000      -0.179280        -4.8784   27-B
  60   1.0000      -0.175621        -4.7789   28-B
  61   1.0000      -0.148585        -4.0432   29-B
  62   1.0000      -0.145690        -3.9644   30-B
  63   1.0000      -0.129020        -3.5108   34-A
  64   1.0000      -0.113337        -3.0840   31-B
  65   1.0000      -0.112365        -3.0576   32-B
  66   1.0000      -0.112313        -3.0562   35-A
  67   1.0000      -0.083096        -2.2612   36-A
  68   1.0000      -0.071048        -1.9333   33-B
  69   1.0000      -0.058208        -1.5839   37-A
  70   1.0000      -0.053269        -1.4495   34-B
  71   1.0000      -0.031993        -0.8706   35-B
  72   1.0000      -0.030453        -0.8287   36-B
  73   1.0000      -0.024981        -0.6798   38-A
  74   1.0000      -0.022101        -0.6014   39-A
  75   1.0000      -0.014275        -0.3885   40-A
  76   1.0000      -0.002104        -0.0573   37-B
  77   1.0000       0.007194         0.1958   41-A
  78   1.0000       0.010975         0.2986   42-A
  79   1.0000       0.014906         0.4056   38-B
  80   1.0000       0.027254         0.7416   43-A
  81   1.0000       0.034499         0.9388   44-A
  82   1.0000       0.043411         1.1813   39-B
  83   1.0000       0.054009         1.4697   45-A
  84   1.0000       0.058802         1.6001   46-A
  85   1.0000       0.066528         1.8103   40-B
  86   1.0000       0.092803         2.5253   41-B
  87   0.0000       0.138514         3.7692   42-B
  88   0.0000       0.181145         4.9292   47-A
  89   0.0000       0.181697         4.9442   48-A
  90   0.0000       0.194257         5.2860   49-A
  91   0.0000       0.196522         5.3476   43-B

MULLIKEN ATOMIC CHARGES AND SPIN POPULATIONS
--------------------------------------------
   0 Cu:    0.143224    0.374093
   1 S :   -0.416940    0.162709
   2 C :    0.010649   -0.006891
   3 S :   -0.413659    0.163142
   4 C :    0.006647   -0.006657
   5 S :   -0.416940    0.162709
   6 C :    0.010649   -0.006891
   7 S :   -0.413659    0.163142
   8 C :    0.006647   -0.006657
   9 C :   -0.077001   -0.001685
  10 C :   -0.077001   -0.001685
  11 C :   -0.148159   -0.001123
  12 H :    0.070327    0.001895
  13 C :   -0.148159   -0.001123
  14 H :    0.070327    0.001895
  15 H :    0.026185    0.001174
  16 H :    0.026185    0.001174
  17 C :   -0.079986   -0.001638
  18 C :   -0.079986   -0.001638
  19 C :   -0.146012   -0.001056
  20 H :    0.068998    0.001937
  21 C :   -0.146012   -0.001056
  22 H :    0.068998    0.001937
  23 H :    0.027340    0.001146
  24 H :    0.027340    0.001146
Sum of atomic charges         :   -2.0000000

LOEWDIN ATOMIC CHARGES AND SPIN POPULATIONS
-------------------------------------------
   0 Cu:   -0.895495    0.441054
   1 S :    0.005005    0.124143
   2 C :   -0.033936    0.005313
   3 S :    0.003893    0.124495
   4 C :   -0.032454    0.005412
   5 S :    0.005005    0.124143
   6 C :   -0.033936    0.005313
   7 S :    0.003893    0.124495
   8 C :   -0.032454    0.005412
   9 C :    0.303515    0.003904
  10 C :    0.303515    0.003904
  11 C :    0.313958   -0.000309
  12 H :   -0.452324    0.006219
  13 C :    0.313958   -0.000309
  14 H :   -0.452324    0.006219
  15 H :   -0.412485    0.000218
  16 H :   -0.412485    0.000218
  17 C :    0.304247    0.003898
  18 C :    0.304247    0.003898
  19 C :    0.313296   -0.000261
  20 H :   -0.451017    0.006231
  21 C :    0.313296   -0.000261
  22 H :   -0.451017    0.006231
  23 H :   -0.413951    0.000211
  24 H :   -0.413951    0.000211

  Mayer bond orders larger than 0.100000
B(  0-Cu,  1-S ) :   0.7000 B(  0-Cu,  3-S ) :   0.6998 B(  0-Cu,  5-S ) :   0.7000
B(  0-Cu,  7-S ) :   0.6998 B(  1-S ,  2-C ) :   1.1843 B(  2-C ,  6-C ) :   1.2464
B(  2-C , 17-C ) :   1.3181 B(  3-S ,  4-C ) :   1.1841 B(  4-C ,  8-C ) :   1.2463
B(  4-C , 10-C ) :   1.3188 B(  5-S ,  6-C ) :   1.1843 B(  6-C , 18-C ) :   1.3181
B(  7-S ,  8-C ) :   1.1841 B(  8-C ,  9-C ) :   1.3188 B(  9-C , 13-C ) :   1.3699
B(  9-C , 14-H ) :   0.9655 B( 10-C , 11-C ) :   1.3699 B( 10-C , 12-H ) :   0.9655
B( 11-C , 13-C ) :   1.3257 B( 11-C , 15-H ) :   0.9915 B( 13-C , 16-H ) :   0.9915
B( 17-C , 19-C ) :   1.3681 B( 17-C , 20-H ) :   0.9667 B( 18-C , 21-C ) :   1.3681
B( 18-C , 22-H ) :   0.9667 B( 19-C , 21-C ) :   1.3294 B( 19-C , 23-H ) :   0.9909
B( 21-C , 24-H ) :   0.9909

FINAL SINGLE POINT ENERGY     -3686.892831558741

DIPOLE MOMENT
-------------
                                X             Y             Z
Electronic contribution:      0.00000       0.00000      -0.00200
Nuclear contribution   :     -0.00000      -0.00000       0.00000
                        -----------------------------------------
Total Dipole Moment    :     -0.00000       0.00000      -0.00200
                        -----------------------------------------
Magnitude (a.u.)       :      0.00200
Magnitude (Debye)      :      0.00507

Rotational constants in cm-1:     0.033305     0.004801     0.004200
Rotational constants in MHz :   998.459454   143.945101   125.919615

                             ****ORCA TERMINATED NORMALLY****
TOTAL RUN TIME: 0 days 5 hours 37 minutes 14 seconds 470 msec
