                         Program Version 5.0.4 -  RELEASE  -
|  1> ! RIJCOSX nofrozencore ReducedPop printbasis
|  2> ! M06L ano-rcc-dzp autoaux
|  3>
|  4> %maxcore 5000
|  5> %basis
|  6> PCDTrimBas overlap
|  7> PCDTrimAuxJ Coulomb
|  8> PCDTrimAuxJK Coulomb
|  9> PCDTrimAuxC Coulomb
| 10> PCDThresh -1
| 11> end
| 12>
| 13> %basis
| 14> newgto Cu "ano-rcc-tzp" end
| 15> newgto S "ano-rcc-tzp" end
| 16> end
| 17>
| 18> %pal
| 19> nprocs 12
| 20> end
| 21>
| 22> % sym SymThresh 1e-2 end
| 23> * xyz -2 2
| 24> Cu 2.9798549350150634e-05 3.542522133177156e-05 2.066640148215537e-05
| 25> S -0.3383110288056326 -1.73143084467192 -1.50184526542156
| 26> C -1.931879036540237 -2.366951493504943 -1.4068380834108405
| 27> S 2.191254318533863 0.27402834931839004 -0.702502314584467
| 28> C 2.916589718890043 1.5530296481438048 0.19780590785218347
| 29> S -2.190868004999169 -0.27457717433461526 0.7018091926944089
| 30> C -2.9885162964406558 -1.536153534675429 -0.15008295924191642
| 31> S 0.3376075549158384 1.7317389927210394 1.50244843228587
| 32> C 1.9540589772384394 2.3118288977928096 1.3445325627759803
| 33> C 2.5032686923328296 3.217391521464984 1.9662899518843893
| 34> C 4.065776381690809 1.9920224308401158 0.11088627766781312
| 35> C 4.638820831354039 3.1104441298395673 0.9250875053028155
| 36> H 4.6242472735683 1.4512806763043589 -0.6502481708261117
| 37> C 3.921013762604349 3.6777508480231402 1.7816241559942856
| 38> H 1.8209052175138718 3.659814454792988 2.6881815379265337
| 39> H 5.679511479616449 3.3255864873943843 0.6724807668140729
| 40> H 4.178294235053977 4.501373823096203 2.4536598740159503
| 41> C -2.482516093344407 -3.1891829396757094 -1.9485249141792929
| 42> C -4.02945642680357 -1.9750393085064002 -0.11066963790472735
| 43> C -3.956664233346009 -3.667956406933729 -1.7566071703916175
| 44> H -1.7520084714988091 -3.593054183494505 -2.6548381652313653
| 45> C -4.6265122317470055 -3.141337249535031 -0.9599525886412432
| 46> H -4.536480484602791 -1.3939398263258111 0.6663094433292938
| 47> H -4.138756105211 -4.496903174171803 -2.466787250894619
| 48> H -5.676643615061197 -3.280094774856485 -0.6303731066171218
| 49> *
| 50>
| 51> % eprnmr
| 52> gtensor true
| 53> Nuclei = all H {aiso,adip,aorb,fgrad,rho}
| 54> Nuclei = all Cu {aiso,adip,aorb,fgrad,rho}
| 55> end
| 56>
| 57>                          ****END OF INPUT****

CARTESIAN COORDINATES (ANGSTROEM)
---------------------------------
  Cu     0.000025    0.000044    0.000000
  S     -0.030339   -2.316663    0.000000
  C     -1.630831   -2.941802    0.000000
  S      2.317040    0.039039    0.000000
  C      2.853692    1.677488    0.000000
  S     -2.316515   -0.039849    0.000000
  C     -2.934762   -1.643379    0.000000
  S      0.029519    2.317192    0.000000
  C      1.665505    2.862998    0.000000
  C      2.084034    4.017594    0.000000
  C      4.011614    2.101890    0.000000
  C      4.414666    3.544013    0.000000
  H      4.720488    1.276594    0.000000
  C      3.528298    4.430067    0.000000
  H      1.260209    4.727381    0.000000
  H      5.498621    3.678827    0.000000
  H      3.646946    5.517313    0.000000
  C     -2.067055   -3.982186    0.000000
  C     -3.975620   -2.084224    0.000000
  C     -3.568758   -4.411205    0.000000
  H     -1.198627   -4.646615    0.000000
  C     -4.395365   -3.588160    0.000000
  H     -4.636669   -1.211607    0.000000
  H     -3.605047   -5.517256    0.000000
  H     -5.504337   -3.617037    0.000000

 Total Charge           Charge          ....   -2
 Multiplicity           Mult            ....    2
 Number of Electrons    NEL             ....  175
 Basis Dimension        Dim             ....  475

ORBITAL ENERGIES
----------------
                 SPIN UP ORBITALS
  NO   OCC          E(Eh)            E(eV)    Irrep
   0   1.0000    -318.182154     -8658.1766    1-A'
   1   1.0000     -88.012524     -2394.9425    2-A'
   2   1.0000     -88.012149     -2394.9323    3-A'
   3   1.0000     -88.010018     -2394.8743    4-A'
   4   1.0000     -88.009934     -2394.8721    5-A'
   5   1.0000     -38.026782     -1034.7613    6-A'
   6   1.0000     -33.530118      -912.4009    7-A'
   7   1.0000     -33.529142      -912.3743    8-A'
   8   1.0000     -33.515244      -911.9961    1-A"
   9   1.0000      -9.829166      -267.4652    9-A'
  10   1.0000      -9.826065      -267.3808   10-A'
  11   1.0000      -9.825054      -267.3533   11-A'
  12   1.0000      -9.823593      -267.3136   12-A'
  13   1.0000      -9.821016      -267.2434   13-A'
  14   1.0000      -9.820238      -267.2223   14-A'
  15   1.0000      -9.803072      -266.7551   15-A'
  16   1.0000      -9.802706      -266.7452   16-A'
  17   1.0000      -9.793173      -266.4858   17-A'
  18   1.0000      -9.792567      -266.4693   18-A'
  19   1.0000      -9.780786      -266.1487   19-A'
  20   1.0000      -9.780662      -266.1453   20-A'
  21   1.0000      -7.581503      -206.3032   21-A'
  22   1.0000      -7.581137      -206.2932   22-A'
  23   1.0000      -7.579059      -206.2367   23-A'
  24   1.0000      -7.578985      -206.2347   24-A'
  25   1.0000      -5.504658      -149.7893   25-A'
  26   1.0000      -5.504302      -149.7797   26-A'
  27   1.0000      -5.502334      -149.7261   27-A'
  28   1.0000      -5.502263      -149.7242   28-A'
  29   1.0000      -5.499466      -149.6481   29-A'
  30   1.0000      -5.499109      -149.6384   30-A'
  31   1.0000      -5.497431      -149.5927    2-A"
  32   1.0000      -5.497145      -149.5849   31-A'
  33   1.0000      -5.497072      -149.5829   32-A'
  34   1.0000      -5.497046      -149.5822    3-A"
  35   1.0000      -5.494708      -149.5186    4-A"
  36   1.0000      -5.494629      -149.5165    5-A"
  37   1.0000      -4.024491      -109.5120   33-A'
  38   1.0000      -2.546334       -69.2893   34-A'
  39   1.0000      -2.544290       -69.2336   35-A'
  40   1.0000      -2.516743       -68.4841    6-A"
  41   1.0000      -0.600369       -16.3369   36-A'
  42   1.0000      -0.592086       -16.1115   37-A'
  43   1.0000      -0.528294       -14.3756   38-A'
  44   1.0000      -0.523597       -14.2478   39-A'
  45   1.0000      -0.509557       -13.8658   40-A'
  46   1.0000      -0.508287       -13.8312   41-A'
  47   1.0000      -0.405519       -11.0347   42-A'
  48   1.0000      -0.398220       -10.8361   43-A'
  49   1.0000      -0.396879       -10.7996   44-A'
  50   1.0000      -0.392711       -10.6862   45-A'
  51   1.0000      -0.321667        -8.7530   46-A'
  52   1.0000      -0.315346        -8.5810   47-A'
  53   1.0000      -0.286551        -7.7974   48-A'
  54   1.0000      -0.276837        -7.5331   49-A'
  55   1.0000      -0.231647        -6.3034   50-A'
  56   1.0000      -0.224459        -6.1078   51-A'
  57   1.0000      -0.205501        -5.5920   52-A'
  58   1.0000      -0.191550        -5.2123   53-A'
  59   1.0000      -0.167845        -4.5673   54-A'
  60   1.0000      -0.163891        -4.4597   55-A'
  61   1.0000      -0.141534        -3.8513   56-A'
  62   1.0000      -0.138340        -3.7644   57-A'
  63   1.0000      -0.129985        -3.5371   58-A'
  64   1.0000      -0.128953        -3.5090    7-A"
  65   1.0000      -0.119282        -3.2458    8-A"
  66   1.0000      -0.117047        -3.1850   59-A'
  67   1.0000      -0.073844        -2.0094   60-A'
  68   1.0000      -0.069927        -1.9028   61-A'
  69   1.0000      -0.063530        -1.7287   62-A'
  70   1.0000      -0.055340        -1.5059    9-A"
  71   1.0000      -0.050847        -1.3836   10-A"
  72   1.0000      -0.039748        -1.0816   11-A"
  73   1.0000      -0.038755        -1.0546   12-A"
  74   1.0000      -0.032534        -0.8853   63-A'
  75   1.0000      -0.030740        -0.8365   64-A'
  76   1.0000      -0.013952        -0.3797   65-A'
  77   1.0000      -0.006412        -0.1745   13-A"
  78   1.0000      -0.002322        -0.0632   14-A"
  79   1.0000       0.006725         0.1830   66-A'
  80   1.0000       0.028384         0.7724   67-A'
  81   1.0000       0.038970         1.0604   68-A'
  82   1.0000       0.048265         1.3134   69-A'
  83   1.0000       0.050158         1.3649   15-A"
  84   1.0000       0.061453         1.6722   16-A"
  85   1.0000       0.064767         1.7624   17-A"
  86   1.0000       0.077065         2.0970   18-A"
  87   1.0000       0.101746         2.7686   70-A'
  88   0.0000       0.176596         4.8054   71-A'
  89   0.0000       0.180827         4.9206   72-A'
  90   0.0000       0.187377         5.0988   73-A'
  91   0.0000       0.193689         5.2706   74-A'
  92   0.0000       0.208493         5.6734   19-A"

                 SPIN DOWN ORBITALS
  NO   OCC          E(Eh)            E(eV)    Irrep
   0   1.0000    -318.181984     -8658.1720    1-A'
   1   1.0000     -88.011505     -2394.9148    2-A'
   2   1.0000     -88.011128     -2394.9046    3-A'
   3   1.0000     -88.009000     -2394.8466    4-A'
   4   1.0000     -88.008916     -2394.8443    5-A'
   5   1.0000     -38.011112     -1034.3349    6-A'
   6   1.0000     -33.515142      -911.9934    7-A'
   7   1.0000     -33.514190      -911.9675    8-A'
   8   1.0000     -33.511000      -911.8807    1-A"
   9   1.0000      -9.829088      -267.4631    9-A'
  10   1.0000      -9.825987      -267.3787   10-A'
  11   1.0000      -9.825005      -267.3520   11-A'
  12   1.0000      -9.823544      -267.3122   12-A'
  13   1.0000      -9.821057      -267.2446   13-A'
  14   1.0000      -9.820279      -267.2234   14-A'
  15   1.0000      -9.803073      -266.7552   15-A'
  16   1.0000      -9.802710      -266.7453   16-A'
  17   1.0000      -9.793145      -266.4850   17-A'
  18   1.0000      -9.792540      -266.4686   18-A'
  19   1.0000      -9.780760      -266.1480   19-A'
  20   1.0000      -9.780637      -266.1447   20-A'
  21   1.0000      -7.580809      -206.2843   21-A'
  22   1.0000      -7.580443      -206.2743   22-A'
  23   1.0000      -7.578373      -206.2180   23-A'
  24   1.0000      -7.578299      -206.2160   24-A'
  25   1.0000      -5.503790      -149.7657   25-A'
  26   1.0000      -5.503432      -149.7560   26-A'
  27   1.0000      -5.501478      -149.7028   27-A'
  28   1.0000      -5.501406      -149.7009   28-A'
  29   1.0000      -5.497317      -149.5896   29-A'
  30   1.0000      -5.496958      -149.5798   30-A'
  31   1.0000      -5.496663      -149.5718    2-A"
  32   1.0000      -5.496278      -149.5613    3-A"
  33   1.0000      -5.495008      -149.5268   31-A'
  34   1.0000      -5.494934      -149.5247   32-A'
  35   1.0000      -5.493948      -149.4979    4-A"
  36   1.0000      -5.493870      -149.4958    5-A"
  37   1.0000      -3.991070      -108.6025   33-A'
  38   1.0000      -2.505209       -68.1702    6-A"
  39   1.0000      -2.504683       -68.1559   34-A'
  40   1.0000      -2.502542       -68.0976   35-A'
  41   1.0000      -0.599950       -16.3255   36-A'
  42   1.0000      -0.591698       -16.1009   37-A'
  43   1.0000      -0.527206       -14.3460   38-A'
  44   1.0000      -0.522549       -14.2193   39-A'
  45   1.0000      -0.508395       -13.8341   40-A'
  46   1.0000      -0.507040       -13.7973   41-A'
  47   1.0000      -0.401183       -10.9167   42-A'
  48   1.0000      -0.394218       -10.7272   43-A'
  49   1.0000      -0.392835       -10.6896   44-A'
  50   1.0000      -0.388157       -10.5623   45-A'
  51   1.0000      -0.320239        -8.7142   46-A'
  52   1.0000      -0.313556        -8.5323   47-A'
  53   1.0000      -0.285721        -7.7749   48-A'
  54   1.0000      -0.276206        -7.5159   49-A'
  55   1.0000      -0.230819        -6.2809   50-A'
  56   1.0000      -0.223489        -6.0814   51-A'
  57   1.0000      -0.204774        -5.5722   52-A'
  58   1.0000      -0.190778        -5.1913   53-A'
  59   1.0000      -0.167330        -4.5533   54-A'
  60   1.0000      -0.163314        -4.4440   55-A'
  61   1.0000      -0.140363        -3.8195   56-A'
  62   1.0000      -0.136999        -3.7279   57-A'
  63   1.0000      -0.128753        -3.5035    7-A"
  64   1.0000      -0.125666        -3.4195   58-A'
  65   1.0000      -0.119069        -3.2400    8-A"
  66   1.0000      -0.115500        -3.1429   59-A'
  67   1.0000      -0.072673        -1.9775   60-A'
  68   1.0000      -0.061100        -1.6626   61-A'
  69   1.0000      -0.059469        -1.6182   62-A'
  70   1.0000      -0.054417        -1.4808    9-A"
  71   1.0000      -0.049797        -1.3551   10-A"
  72   1.0000      -0.038342        -1.0433   11-A"
  73   1.0000      -0.037483        -1.0200   12-A"
  74   1.0000      -0.028196        -0.7673   63-A'
  75   1.0000      -0.005708        -0.1553   64-A'
  76   1.0000       0.001087         0.0296   65-A'
  77   1.0000       0.005453         0.1484   13-A"
  78   1.0000       0.009794         0.2665   14-A"
  79   1.0000       0.020895         0.5686   66-A'
  80   1.0000       0.037241         1.0134   67-A'
  81   1.0000       0.047307         1.2873   68-A'
  82   1.0000       0.052190         1.4202   69-A'
  83   1.0000       0.052220         1.4210   15-A"
  84   1.0000       0.065033         1.7696   16-A"
  85   1.0000       0.069234         1.8839   17-A"
  86   1.0000       0.081650         2.2218   18-A"
  87   0.0000       0.133905         3.6437   70-A'
  88   0.0000       0.180150         4.9021   71-A'
  89   0.0000       0.183035         4.9806   72-A'
  90   0.0000       0.193203         5.2573   73-A'
  91   0.0000       0.197520         5.3748   74-A'

MULLIKEN ATOMIC CHARGES AND SPIN POPULATIONS
--------------------------------------------
   0 Cu:    0.140261    0.373924
   1 S :   -0.454516    0.151964
   2 C :    0.108221    0.001362
   3 S :   -0.433623    0.154460
   4 C :    0.065551   -0.001576
   5 S :   -0.452990    0.151807
   6 C :    0.109746    0.001586
   7 S :   -0.436279    0.154792
   8 C :    0.066618   -0.001614
   9 C :   -0.117839   -0.003527
  10 C :   -0.120788   -0.003557
  11 C :   -0.137799    0.000325
  12 H :    0.072227    0.002834
  13 C :   -0.138260    0.000332
  14 H :    0.072299    0.002825
  15 H :    0.019450    0.001856
  16 H :    0.018202    0.001865
  17 C :   -0.155392   -0.003063
  18 C :   -0.157655   -0.003005
  19 C :   -0.112495    0.001368
  20 H :    0.070837    0.003641
  21 C :   -0.106941    0.001358
  22 H :    0.071186    0.003639
  23 H :    0.005490    0.003175
  24 H :    0.004489    0.003228
Sum of atomic charges         :   -2.0000000

LOEWDIN ATOMIC CHARGES AND SPIN POPULATIONS
-------------------------------------------
   0 Cu:   -0.885410    0.437291
   1 S :    0.047805    0.116738
   2 C :   -0.031829    0.009865
   3 S :    0.033699    0.117838
   4 C :   -0.020428    0.008313
   5 S :    0.048394    0.116650
   6 C :   -0.030403    0.009931
   7 S :    0.033087    0.117993
   8 C :   -0.022901    0.008331
   9 C :    0.261747    0.002943
  10 C :    0.262384    0.002918
  11 C :    0.308766    0.000968
  12 H :   -0.461300    0.007512
  13 C :    0.310373    0.000983
  14 H :   -0.460687    0.007484
  15 H :   -0.400313    0.000600
  16 H :   -0.398822    0.000596
  17 C :    0.244294    0.003650
  18 C :    0.244916    0.003677
  19 C :    0.299436    0.002406
  20 H :   -0.467644    0.009116
  21 C :    0.298315    0.002429
  22 H :   -0.468689    0.009247
  23 H :   -0.373226    0.001254
  24 H :   -0.371566    0.001265

  Mayer bond orders larger than 0.100000
B(  0-Cu,  1-S ) :   0.6903 B(  0-Cu,  3-S ) :   0.6961 B(  0-Cu,  5-S ) :   0.6903
B(  0-Cu,  7-S ) :   0.6970 B(  1-S ,  2-C ) :   1.1665 B(  2-C ,  6-C ) :   0.8631
B(  2-C , 17-C ) :   1.6818 B(  3-S ,  4-C ) :   1.1959 B(  4-C ,  8-C ) :   1.0137
B(  4-C , 10-C ) :   1.5486 B(  5-S ,  6-C ) :   1.1665 B(  6-C , 18-C ) :   1.6815
B(  7-S ,  8-C ) :   1.1932 B(  8-C ,  9-C ) :   1.5517 B(  9-C , 13-C ) :   1.1378
B(  9-C , 14-H ) :   0.9596 B( 10-C , 11-C ) :   1.1411 B( 10-C , 12-H ) :   0.9597
B( 11-C , 13-C ) :   1.5797 B( 11-C , 15-H ) :   0.9893 B( 13-C , 16-H ) :   0.9888
B( 17-C , 19-C ) :   1.0440 B( 17-C , 20-H ) :   0.9437 B( 18-C , 21-C ) :   1.0437
B( 18-C , 22-H ) :   0.9434 B( 19-C , 21-C ) :   1.6880 B( 19-C , 23-H ) :   0.9816
B( 21-C , 24-H ) :   0.9799

FINAL SINGLE POINT ENERGY     -3686.533595808732

DIPOLE MOMENT
-------------
                                X             Y             Z
Electronic contribution:     -0.33073      -0.35958      -0.00000
Nuclear contribution   :      0.17024       0.19455       0.00000
                        -----------------------------------------
Total Dipole Moment    :     -0.16049      -0.16504      -0.00000
                        -----------------------------------------
Magnitude (a.u.)       :      0.23021
Magnitude (Debye)      :      0.58514

Rotational constants in cm-1:     0.033205     0.004808     0.004200
Rotational constants in MHz :   995.452839   144.144116   125.911770

                             ****ORCA TERMINATED NORMALLY****
TOTAL RUN TIME: 0 days 7 hours 16 minutes 28 seconds 486 msec
