                         Program Version 5.0.4 -  RELEASE  -
|  1> ! RIJCOSX nofrozencore ReducedPop printbasis
|  2> ! M06L ano-rcc-dzp autoaux
|  3>
|  4> %maxcore 5000
|  5> %basis
|  6> PCDTrimBas overlap
|  7> PCDTrimAuxJ Coulomb
|  8> PCDTrimAuxJK Coulomb
|  9> PCDTrimAuxC Coulomb
| 10> PCDThresh -1
| 11> end
| 12>
| 13> %basis
| 14> newgto Cu "ano-rcc-tzp" end
| 15> newgto S "ano-rcc-tzp" end
| 16> end
| 17>
| 18> %pal
| 19> nprocs 12
| 20> end
| 21>
| 22> % sym SymThresh 1e-2 end
| 23> * xyz -2 2
| 24> Cu -1.1799382747365372e-05 2.2296744488854305e-05 -3.2336198786807365e-05
| 25> S -0.6643565900455036 1.2348058148515713 -1.8479855334944748
| 26> C -0.592594323295756 0.0010140522511900207 -3.107729061295028
| 27> S -0.20211522638520601 1.8463025027167825 1.3881488780836884
| 28> C 0.259007735101199 1.201071724638044 2.951750717063137
| 29> S 0.20218295947893708 -1.8470445780998699 -1.3887776493885595
| 30> C -0.2703045513616025 -1.1444811874483765 -2.935969944237842
| 31> S 0.6640816719616602 -1.2342322756108608 1.8473037873639089
| 32> C 0.6105192487451419 -0.04804564336525672 3.1393999939449078
| 33> C 0.990503471685449 -0.5481908646941394 4.469715279049658
| 34> C 0.22999015910640996 2.1608292152493593 4.072333574185206
| 35> C 0.6218427359636897 1.5999984112278864 5.384435859494143
| 36> H -0.07048170814261173 3.1849982753364734 3.854141026759399
| 37> C 0.9396609816834218 0.47328771695110594 5.5576468620747175
| 38> H 1.2750186081696075 -1.5947598127842306 4.574483486469663
| 39> H 0.5348574089585781 2.4617766862865036 6.070948715198832
| 40> H 1.2556967606343914 -0.1038309800337005 6.450371852609549
| 41> C -1.0035519833527093 0.5854427669667043 -4.488771645999963
| 42> C -0.2188917286239651 -2.2051191509249186 -4.072842199470805
| 43> C -0.9147182906536626 -0.5773183692322832 -5.564748724376027
| 44> H -1.2782263897203883 1.6476681490885667 -4.5211465278009335
| 45> C -0.654957419697586 -1.5017218939833408 -5.427839841114342
| 46> H 0.0908183324398944 -3.2210439114518272 -3.795247491984937
| 47> H -1.266667954562826 0.21120073396521227 -6.365539578300349
| 48> H -0.49202521211449307 -2.5435516351727605 -5.954677059417384
| 49> *
| 50>
| 51> % eprnmr
| 52> gtensor true
| 53> Nuclei = all H {aiso,adip,aorb,fgrad,rho}
| 54> Nuclei = all Cu {aiso,adip,aorb,fgrad,rho}
| 55> end
| 56>
| 57>                          ****END OF INPUT****

CARTESIAN COORDINATES (ANGSTROEM)
---------------------------------
  Cu     0.000024   -0.000034    0.000000
  S      1.316480   -1.909986    0.000000
  C      0.073646   -3.162867    0.000000
  S      1.871444    1.369065    0.000000
  C      1.169566    2.975669    0.000000
  S     -1.872194   -1.369688    0.000000
  C     -1.111580   -2.960948    0.000000
  S     -1.315872    1.909278    0.000000
  C     -0.122884    3.196212    0.000000
  C     -0.669702    4.561958    0.000000
  C      2.133072    4.093407    0.000000
  C      1.524102    5.442053    0.000000
  H      3.194273    3.847103    0.000000
  C      0.358212    5.645005    0.000000
  H     -1.751352    4.693356    0.000000
  H      2.396713    6.120343    0.000000
  H     -0.257757    6.567222    0.000000
  C      0.708561   -4.582235    0.000000
  C     -2.178731   -4.092877    0.000000
  C     -0.465321   -5.649771    0.000000
  H      1.804664   -4.640326    0.000000
  C     -1.421747   -5.488554    0.000000
  H     -3.232819   -3.786312    0.000000
  H      0.366493   -6.483428    0.000000
  H     -2.483754   -6.000074    0.000000

 Total Charge           Charge          ....   -2
 Multiplicity           Mult            ....    2
 Number of Electrons    NEL             ....  175
 Basis Dimension        Dim             ....  475

ORBITAL ENERGIES
----------------
                 SPIN UP ORBITALS
  NO   OCC          E(Eh)            E(eV)    Irrep
   0   1.0000    -318.174161     -8657.9591    1-A'
   1   1.0000     -88.010616     -2394.8906    2-A'
   2   1.0000     -88.010580     -2394.8896    3-A'
   3   1.0000     -88.009749     -2394.8670    4-A'
   4   1.0000     -88.009185     -2394.8517    5-A'
   5   1.0000     -38.018928     -1034.5476    6-A'
   6   1.0000     -33.521681      -912.1713    7-A'
   7   1.0000     -33.521388      -912.1634    8-A'
   8   1.0000     -33.507858      -911.7952    1-A"
   9   1.0000      -9.839597      -267.7491    9-A'
  10   1.0000      -9.839580      -267.7486   10-A'
  11   1.0000      -9.829688      -267.4794   11-A'
  12   1.0000      -9.828752      -267.4539   12-A'
  13   1.0000      -9.827837      -267.4290   13-A'
  14   1.0000      -9.827196      -267.4116   14-A'
  15   1.0000      -9.826936      -267.4045   15-A'
  16   1.0000      -9.824592      -267.3407   16-A'
  17   1.0000      -9.824183      -267.3296   17-A'
  18   1.0000      -9.820179      -267.2207   18-A'
  19   1.0000      -9.817390      -267.1448   19-A'
  20   1.0000      -9.807154      -266.8662   20-A'
  21   1.0000      -7.579227      -206.2413   21-A'
  22   1.0000      -7.579176      -206.2399   22-A'
  23   1.0000      -7.578501      -206.2215   23-A'
  24   1.0000      -7.577939      -206.2062   24-A'
  25   1.0000      -5.502641      -149.7345   25-A'
  26   1.0000      -5.502582      -149.7329   26-A'
  27   1.0000      -5.501828      -149.7124   27-A'
  28   1.0000      -5.501260      -149.6969   28-A'
  29   1.0000      -5.497194      -149.5863   29-A'
  30   1.0000      -5.497148      -149.5850   30-A'
  31   1.0000      -5.496374      -149.5639   31-A'
  32   1.0000      -5.495841      -149.5494   32-A'
  33   1.0000      -5.495141      -149.5304    2-A"
  34   1.0000      -5.495095      -149.5291    3-A"
  35   1.0000      -5.494497      -149.5129    4-A"
  36   1.0000      -5.493914      -149.4970    5-A"
  37   1.0000      -4.016512      -109.2948   33-A'
  38   1.0000      -2.537085       -69.0376   34-A'
  39   1.0000      -2.536677       -69.0265   35-A'
  40   1.0000      -2.509712       -68.2927    6-A"
  41   1.0000      -0.605321       -16.4716   36-A'
  42   1.0000      -0.595785       -16.2121   37-A'
  43   1.0000      -0.551662       -15.0115   38-A'
  44   1.0000      -0.528238       -14.3741   39-A'
  45   1.0000      -0.469169       -12.7667   40-A'
  46   1.0000      -0.451746       -12.2926   41-A'
  47   1.0000      -0.396007       -10.7759   42-A'
  48   1.0000      -0.392064       -10.6686   43-A'
  49   1.0000      -0.385714       -10.4958   44-A'
  50   1.0000      -0.385112       -10.4794   45-A'
  51   1.0000      -0.358017        -9.7421   46-A'
  52   1.0000      -0.339693        -9.2435   47-A'
  53   1.0000      -0.284035        -7.7290   48-A'
  54   1.0000      -0.266681        -7.2568   49-A'
  55   1.0000      -0.250700        -6.8219   50-A'
  56   1.0000      -0.241804        -6.5798   51-A'
  57   1.0000      -0.205143        -5.5822   52-A'
  58   1.0000      -0.192852        -5.2478   53-A'
  59   1.0000      -0.178275        -4.8511   54-A'
  60   1.0000      -0.174295        -4.7428   55-A'
  61   1.0000      -0.147597        -4.0163    7-A"
  62   1.0000      -0.140713        -3.8290   56-A'
  63   1.0000      -0.138169        -3.7598   57-A'
  64   1.0000      -0.122581        -3.3356    8-A"
  65   1.0000      -0.114776        -3.1232   58-A'
  66   1.0000      -0.112567        -3.0631   59-A'
  67   1.0000      -0.087834        -2.3901    9-A"
  68   1.0000      -0.082439        -2.2433   60-A'
  69   1.0000      -0.080245        -2.1836   61-A'
  70   1.0000      -0.058933        -1.6037   10-A"
  71   1.0000      -0.039869        -1.0849   62-A'
  72   1.0000      -0.027512        -0.7486   63-A'
  73   1.0000      -0.022302        -0.6069   64-A'
  74   1.0000      -0.012837        -0.3493   11-A"
  75   1.0000       0.002663         0.0725   12-A"
  76   1.0000       0.003724         0.1013   13-A"
  77   1.0000       0.003985         0.1084   65-A'
  78   1.0000       0.015945         0.4339   66-A'
  79   1.0000       0.018742         0.5100   14-A"
  80   1.0000       0.022110         0.6016   67-A'
  81   1.0000       0.023074         0.6279   68-A'
  82   1.0000       0.039924         1.0864   69-A'
  83   1.0000       0.054193         1.4747   15-A"
  84   1.0000       0.061999         1.6871   16-A"
  85   1.0000       0.068311         1.8588   17-A"
  86   1.0000       0.082346         2.2407   18-A"
  87   1.0000       0.114837         3.1249   70-A'
  88   0.0000       0.139734         3.8024   19-A"
  89   0.0000       0.170958         4.6520   20-A"
  90   0.0000       0.175843         4.7849   71-A'
  91   0.0000       0.180002         4.8981   72-A'
  92   0.0000       0.193708         5.2711   73-A'

                 SPIN DOWN ORBITALS
  NO   OCC          E(Eh)            E(eV)    Irrep
   0   1.0000    -318.173992     -8657.9545    1-A'
   1   1.0000     -88.009508     -2394.8605    2-A'
   2   1.0000     -88.009475     -2394.8596    3-A'
   3   1.0000     -88.008680     -2394.8379    4-A'
   4   1.0000     -88.008112     -2394.8225    5-A'
   5   1.0000     -38.003457     -1034.1266    6-A'
   6   1.0000     -33.506930      -911.7699    7-A'
   7   1.0000     -33.506625      -911.7616    8-A'
   8   1.0000     -33.503617      -911.6798    1-A"
   9   1.0000      -9.839572      -267.7484    9-A'
  10   1.0000      -9.839553      -267.7479   10-A'
  11   1.0000      -9.829792      -267.4822   11-A'
  12   1.0000      -9.828854      -267.4567   12-A'
  13   1.0000      -9.827778      -267.4274   13-A'
  14   1.0000      -9.827134      -267.4099   14-A'
  15   1.0000      -9.827012      -267.4066   15-A'
  16   1.0000      -9.824666      -267.3428   16-A'
  17   1.0000      -9.824140      -267.3284   17-A'
  18   1.0000      -9.820139      -267.2196   18-A'
  19   1.0000      -9.817350      -267.1437   19-A'
  20   1.0000      -9.807111      -266.8651   20-A'
  21   1.0000      -7.578471      -206.2207   21-A'
  22   1.0000      -7.578421      -206.2193   22-A'
  23   1.0000      -7.577772      -206.2017   23-A'
  24   1.0000      -7.577205      -206.1862   24-A'
  25   1.0000      -5.501619      -149.7067   25-A'
  26   1.0000      -5.501564      -149.7052   26-A'
  27   1.0000      -5.500874      -149.6864   27-A'
  28   1.0000      -5.500302      -149.6708   28-A'
  29   1.0000      -5.494944      -149.5250   29-A'
  30   1.0000      -5.494905      -149.5240   30-A'
  31   1.0000      -5.494272      -149.5068    2-A"
  32   1.0000      -5.494229      -149.5056    3-A"
  33   1.0000      -5.494173      -149.5040   31-A'
  34   1.0000      -5.493673      -149.4904    4-A"
  35   1.0000      -5.493628      -149.4892   32-A'
  36   1.0000      -5.493087      -149.4745    5-A"
  37   1.0000      -3.983861      -108.4064   33-A'
  38   1.0000      -2.498250       -67.9808    6-A"
  39   1.0000      -2.496385       -67.9301   34-A'
  40   1.0000      -2.495919       -67.9174   35-A'
  41   1.0000      -0.605106       -16.4658   36-A'
  42   1.0000      -0.595512       -16.2047   37-A'
  43   1.0000      -0.550954       -14.9922   38-A'
  44   1.0000      -0.527345       -14.3498   39-A'
  45   1.0000      -0.467817       -12.7300   40-A'
  46   1.0000      -0.449911       -12.2427   41-A'
  47   1.0000      -0.392154       -10.6710   42-A'
  48   1.0000      -0.389278       -10.5928   43-A'
  49   1.0000      -0.383187       -10.4270   44-A'
  50   1.0000      -0.381317       -10.3762   45-A'
  51   1.0000      -0.355447        -9.6722   46-A'
  52   1.0000      -0.337637        -9.1876   47-A'
  53   1.0000      -0.282225        -7.6797   48-A'
  54   1.0000      -0.264960        -7.2099   49-A'
  55   1.0000      -0.250308        -6.8112   50-A'
  56   1.0000      -0.241373        -6.5681   51-A'
  57   1.0000      -0.204165        -5.5556   52-A'
  58   1.0000      -0.191866        -5.2209   53-A'
  59   1.0000      -0.177565        -4.8318   54-A'
  60   1.0000      -0.173050        -4.7089   55-A'
  61   1.0000      -0.147703        -4.0192    7-A"
  62   1.0000      -0.139879        -3.8063   56-A'
  63   1.0000      -0.137457        -3.7404   57-A'
  64   1.0000      -0.122501        -3.3334    8-A"
  65   1.0000      -0.112821        -3.0700   58-A'
  66   1.0000      -0.110571        -3.0088   59-A'
  67   1.0000      -0.087106        -2.3703    9-A"
  68   1.0000      -0.078267        -2.1297   60-A'
  69   1.0000      -0.077815        -2.1175   61-A'
  70   1.0000      -0.058140        -1.5821   10-A"
  71   1.0000      -0.024928        -0.6783   62-A'
  72   1.0000      -0.021170        -0.5761   63-A'
  73   1.0000      -0.007004        -0.1906   11-A"
  74   1.0000       0.000838         0.0228   64-A'
  75   1.0000       0.006685         0.1819   12-A"
  76   1.0000       0.014102         0.3837   65-A'
  77   1.0000       0.015170         0.4128   13-A"
  78   1.0000       0.019146         0.5210   66-A'
  79   1.0000       0.024525         0.6674   14-A"
  80   1.0000       0.029400         0.8000   67-A'
  81   1.0000       0.039228         1.0675   68-A'
  82   1.0000       0.047548         1.2938   69-A'
  83   1.0000       0.056581         1.5396   15-A"
  84   1.0000       0.065392         1.7794   16-A"
  85   1.0000       0.071461         1.9445   17-A"
  86   1.0000       0.087067         2.3692   18-A"
  87   0.0000       0.139415         3.7937   19-A"
  88   0.0000       0.146255         3.9798   70-A'
  89   0.0000       0.171000         4.6531   20-A"
  90   0.0000       0.176642         4.8067   71-A'
  91   0.0000       0.182222         4.9585   72-A'

MULLIKEN ATOMIC CHARGES AND SPIN POPULATIONS
--------------------------------------------
   0 Cu:    0.144304    0.363818
   1 S :   -0.436162    0.169301
   2 C :    0.095939   -0.007140
   3 S :   -0.437301    0.160908
   4 C :    0.072802   -0.007874
   5 S :   -0.434606    0.169676
   6 C :    0.095344   -0.007121
   7 S :   -0.439646    0.161793
   8 C :    0.075450   -0.007873
   9 C :   -0.167720   -0.003764
  10 C :   -0.171842   -0.003612
  11 C :   -0.079009    0.000118
  12 H :    0.068622    0.003066
  13 C :   -0.083537    0.000211
  14 H :    0.067870    0.002999
  15 H :    0.010062    0.002382
  16 H :    0.007735    0.002344
  17 C :   -0.232767   -0.010523
  18 C :   -0.232597   -0.010721
  19 C :    0.020062    0.001453
  20 H :    0.082048    0.004299
  21 C :    0.019130    0.001521
  22 H :    0.082321    0.004337
  23 H :   -0.063144    0.005215
  24 H :   -0.063361    0.005188
Sum of atomic charges         :   -2.0000000

LOEWDIN ATOMIC CHARGES AND SPIN POPULATIONS
-------------------------------------------
   0 Cu:   -0.889078    0.432187
   1 S :    0.006495    0.127442
   2 C :   -0.068820    0.004761
   3 S :    0.001298    0.122913
   4 C :   -0.053110    0.004353
   5 S :    0.007061    0.127842
   6 C :   -0.069326    0.004797
   7 S :   -0.001531    0.123416
   8 C :   -0.054991    0.004354
   9 C :    0.376808    0.003843
  10 C :    0.375351    0.003861
  11 C :    0.247876    0.000835
  12 H :   -0.451033    0.006450
  13 C :    0.252597    0.000878
  14 H :   -0.449903    0.006329
  15 H :   -0.400440    0.000986
  16 H :   -0.398490    0.000981
  17 C :    0.439664    0.001010
  18 C :    0.439843    0.000928
  19 C :    0.157707    0.001810
  20 H :   -0.458359    0.006149
  21 C :    0.158206    0.001825
  22 H :   -0.458485    0.006142
  23 H :   -0.354978    0.002955
  24 H :   -0.354362    0.002952

  Mayer bond orders larger than 0.100000
B(  0-Cu,  1-S ) :   0.6931 B(  0-Cu,  3-S ) :   0.6929 B(  0-Cu,  5-S ) :   0.6929
B(  0-Cu,  7-S ) :   0.6945 B(  1-S ,  2-C ) :   1.1283 B(  2-C ,  6-C ) :   1.3292
B(  2-C , 17-C ) :   1.2918 B(  3-S ,  4-C ) :   1.1595 B(  4-C ,  8-C ) :   1.2673
B(  4-C , 10-C ) :   1.3283 B(  5-S ,  6-C ) :   1.1297 B(  6-C , 18-C ) :   1.2917
B(  7-S ,  8-C ) :   1.1550 B(  8-C ,  9-C ) :   1.3316 B(  9-C , 10-C ) :   0.1206
B(  9-C , 13-C ) :   1.2521 B(  9-C , 14-H ) :   0.9685 B( 10-C , 11-C ) :   1.2561
B( 10-C , 12-H ) :   0.9677 B( 11-C , 13-C ) :   1.4860 B( 11-C , 15-H ) :   0.9785
B( 13-C , 16-H ) :   0.9774 B( 17-C , 18-C ) :   0.2221 B( 17-C , 19-C ) :   1.0552
B( 17-C , 20-H ) :   0.9580 B( 18-C , 21-C ) :   1.0549 B( 18-C , 22-H ) :   0.9576
B( 19-C , 21-C ) :   1.7600 B( 19-C , 23-H ) :   0.9118 B( 21-C , 24-H ) :   0.9113

FINAL SINGLE POINT ENERGY     -3686.331639628080

DIPOLE MOMENT
-------------
                                X             Y             Z
Electronic contribution:     -0.01370      -0.19138      -0.00000
Nuclear contribution   :      0.03409       0.29844       0.00000
                        -----------------------------------------
Total Dipole Moment    :      0.02039       0.10707      -0.00000
                        -----------------------------------------
Magnitude (a.u.)       :      0.10899
Magnitude (Debye)      :      0.27703

Rotational constants in cm-1:     0.033583     0.004797     0.004198
Rotational constants in MHz :  1006.800785   143.813492   125.838467

                             ****ORCA TERMINATED NORMALLY****
TOTAL RUN TIME: 0 days 5 hours 41 minutes 40 seconds 83 msec
