                         Program Version 5.0.4 -  RELEASE  -
|  1> ! RIJCOSX nofrozencore ReducedPop printbasis
|  2> ! M06L ano-rcc-dzp autoaux
|  3>
|  4> %maxcore 5000
|  5> %basis
|  6> PCDTrimBas overlap
|  7> PCDTrimAuxJ Coulomb
|  8> PCDTrimAuxJK Coulomb
|  9> PCDTrimAuxC Coulomb
| 10> PCDThresh -1
| 11> end
| 12>
| 13> %basis
| 14> newgto Cu "ano-rcc-tzp" end
| 15> newgto S "ano-rcc-tzp" end
| 16> end
| 17>
| 18> %pal
| 19> nprocs 12
| 20> end
| 21>
| 22> % sym SymThresh 1e-2 end
| 23> * xyz -2 2
| 24> Cu 0.0005597396651897434 -0.000648245982181258 -0.00014442179128902307
| 25> S -1.1615286305214 1.1053378312999318 1.6740798185135155
| 26> C -0.7141578673911668 0.3149347821521035 3.118932172314446
| 27> S -0.9162080163440578 1.384004466154971 -1.61400967082573
| 28> C -0.12922911075189109 0.7186102561379887 -3.226804080750576
| 29> S 0.9070610080756066 -1.375675367840262 1.6293441512864693
| 30> C 0.19667378291362858 -0.7847052456089276 3.14056000146491
| 31> S 1.155441222196485 -1.0956436439566675 -1.6876610023219856
| 32> C 0.7655103454674248 -0.3890186400317419 -3.0484560134939125
| 33> C 1.121463519882113 -0.5860870619214996 -4.373241490237973
| 34> C -0.6341944963888422 1.5213627294480367 -4.345351101642021
| 35> C 0.031158842898469093 0.9167896542350077 -5.4681472201870065
| 36> H -1.332638055583709 2.345376204081512 -4.251848045715095
| 37> C 0.9240825512034722 -0.12755103456991915 -5.63993120587046
| 38> H 1.8263161825405623 -1.4132573736077134 -4.492841117905562
| 39> H -0.15835684894381244 1.3210250980499494 -6.477911916405525
| 40> H 1.4170903648077207 -0.5705262539952572 -6.500519709652164
| 41> C -1.2005569357049513 0.6803372113207421 4.378461452086115
| 42> C 0.5613964547523187 -1.4332814425860199 4.342517888162933
| 43> C -0.8880690750018677 0.09445162447720921 5.581311054383185
| 44> H -1.8981809485122008 1.5116324277913438 4.424588996274
| 45> C 0.0005023126309481928 -0.9667477462783106 5.536135450719467
| 46> H 1.256604106827316 -2.2655903520920573 4.318857836319356
| 47> H -1.330608873697483 0.4667147380200804 6.499152783068372
| 48> H 0.25696365993569115 -1.4403209483746715 6.481677906489611
| 49> *
| 50>
| 51> % eprnmr
| 52> gtensor true
| 53> Nuclei = all H {aiso,adip,aorb,fgrad,rho}
| 54> Nuclei = all Cu {aiso,adip,aorb,fgrad,rho}
| 55> end
| 56>
| 57>                          ****END OF INPUT****

CARTESIAN COORDINATES (ANGSTROEM)
---------------------------------
  Cu    -0.000849   -0.000184    0.000000
  S      1.513457    1.755822    0.000000
  C      0.553820    3.167053    0.000000
  S      1.722840   -1.546530    0.000000
  C      0.783688   -3.214218    0.000000
  S     -1.711310    1.562506    0.000000
  C     -0.873544    3.123216    0.000000
  S     -1.501495   -1.768952    0.000000
  C     -0.646780   -3.100339    0.000000
  C     -0.964239   -4.449344    0.000000
  C      1.774509   -4.295339    0.000000
  C      0.937099   -5.464792    0.000000
  H      2.849193   -4.151749    0.000000
  C     -0.427410   -5.700556    0.000000
  H     -2.044235   -4.619465    0.000000
  H      1.415318   -6.459907    0.000000
  H     -1.042745   -6.595687    0.000000
  C      1.086906    4.460242    0.000000
  C     -1.660228    4.297740    0.000000
  C      0.381695    5.639409    0.000000
  H      2.168851    4.556446    0.000000
  C     -0.998837    5.530436    0.000000
  H     -2.742447    4.224153    0.000000
  H      0.907837    6.588108    0.000000
  H     -1.570102    6.456585    0.000000

 Total Charge           Charge          ....   -2
 Multiplicity           Mult            ....    2
 Number of Electrons    NEL             ....  175
 Basis Dimension        Dim             ....  475

ORBITAL ENERGIES
----------------
                 SPIN UP ORBITALS
  NO   OCC          E(Eh)            E(eV)    Irrep
   0   1.0000    -318.181307     -8658.1535    1-A'
   1   1.0000     -88.017779     -2395.0855    2-A'
   2   1.0000     -88.015367     -2395.0199    3-A'
   3   1.0000     -88.012842     -2394.9512    4-A'
   4   1.0000     -88.005913     -2394.7626    5-A'
   5   1.0000     -38.026435     -1034.7519    6-A'
   6   1.0000     -33.529573      -912.3861    7-A'
   7   1.0000     -33.528697      -912.3622    8-A'
   8   1.0000     -33.515035      -911.9905    1-A"
   9   1.0000      -9.847785      -267.9719    9-A'
  10   1.0000      -9.840427      -267.7716   10-A'
  11   1.0000      -9.835827      -267.6465   11-A'
  12   1.0000      -9.834448      -267.6089   12-A'
  13   1.0000      -9.832295      -267.5503   13-A'
  14   1.0000      -9.831444      -267.5272   14-A'
  15   1.0000      -9.827267      -267.4135   15-A'
  16   1.0000      -9.822571      -267.2858   16-A'
  17   1.0000      -9.820726      -267.2356   17-A'
  18   1.0000      -9.819859      -267.2120   18-A'
  19   1.0000      -9.812332      -267.0071   19-A'
  20   1.0000      -9.811792      -266.9924   20-A'
  21   1.0000      -7.591005      -206.5617   21-A'
  22   1.0000      -7.584654      -206.3889   22-A'
  23   1.0000      -7.581173      -206.2942   23-A'
  24   1.0000      -7.572601      -206.0609   24-A'
  25   1.0000      -5.513762      -150.0371   25-A'
  26   1.0000      -5.508142      -149.8842   26-A'
  27   1.0000      -5.507810      -149.8751   27-A'
  28   1.0000      -5.507058      -149.8547    2-A"
  29   1.0000      -5.504369      -149.7815   28-A'
  30   1.0000      -5.502559      -149.7322   29-A'
  31   1.0000      -5.500702      -149.6817    3-A"
  32   1.0000      -5.499069      -149.6373   30-A'
  33   1.0000      -5.497291      -149.5889    4-A"
  34   1.0000      -5.495778      -149.5477   31-A'
  35   1.0000      -5.491127      -149.4212   32-A'
  36   1.0000      -5.488716      -149.3555    5-A"
  37   1.0000      -4.024056      -109.5001   33-A'
  38   1.0000      -2.545454       -69.2653   34-A'
  39   1.0000      -2.543897       -69.2230   35-A'
  40   1.0000      -2.516654       -68.4816    6-A"
  41   1.0000      -0.601791       -16.3756   36-A'
  42   1.0000      -0.589939       -16.0530   37-A'
  43   1.0000      -0.524110       -14.2618   38-A'
  44   1.0000      -0.505660       -13.7597   39-A'
  45   1.0000      -0.489131       -13.3099   40-A'
  46   1.0000      -0.485719       -13.2171   41-A'
  47   1.0000      -0.416431       -11.3317   42-A'
  48   1.0000      -0.409124       -11.1328   43-A'
  49   1.0000      -0.385701       -10.4955   44-A'
  50   1.0000      -0.376925       -10.2567   45-A'
  51   1.0000      -0.332240        -9.0407   46-A'
  52   1.0000      -0.321162        -8.7393   47-A'
  53   1.0000      -0.296243        -8.0612   48-A'
  54   1.0000      -0.285687        -7.7739   49-A'
  55   1.0000      -0.246998        -6.7211   50-A'
  56   1.0000      -0.231228        -6.2920   51-A'
  57   1.0000      -0.190944        -5.1958   52-A'
  58   1.0000      -0.189019        -5.1435   53-A'
  59   1.0000      -0.177588        -4.8324   54-A'
  60   1.0000      -0.175829        -4.7846   55-A'
  61   1.0000      -0.155824        -4.2402   56-A'
  62   1.0000      -0.148437        -4.0392   57-A'
  63   1.0000      -0.139012        -3.7827   58-A'
  64   1.0000      -0.125517        -3.4155    7-A"
  65   1.0000      -0.117153        -3.1879    8-A"
  66   1.0000      -0.115432        -3.1411   59-A'
  67   1.0000      -0.077120        -2.0985   60-A'
  68   1.0000      -0.064275        -1.7490   61-A'
  69   1.0000      -0.050337        -1.3697    9-A"
  70   1.0000      -0.046421        -1.2632   62-A'
  71   1.0000      -0.039018        -1.0617   10-A"
  72   1.0000      -0.038421        -1.0455   63-A'
  73   1.0000      -0.024945        -0.6788   64-A'
  74   1.0000      -0.023975        -0.6524   11-A"
  75   1.0000      -0.017985        -0.4894   65-A'
  76   1.0000      -0.016289        -0.4433   12-A"
  77   1.0000      -0.002721        -0.0740   13-A"
  78   1.0000       0.000956         0.0260   14-A"
  79   1.0000       0.003450         0.0939   66-A'
  80   1.0000       0.018956         0.5158   67-A'
  81   1.0000       0.021103         0.5742   68-A'
  82   1.0000       0.035853         0.9756   69-A'
  83   1.0000       0.050830         1.3832   15-A"
  84   1.0000       0.053263         1.4494   16-A"
  85   1.0000       0.062222         1.6932   17-A"
  86   1.0000       0.087582         2.3832   18-A"
  87   1.0000       0.104929         2.8553   70-A'
  88   0.0000       0.177735         4.8364   71-A'
  89   0.0000       0.181280         4.9329   72-A'
  90   0.0000       0.197106         5.3635   73-A'
  91   0.0000       0.198053         5.3893   19-A"
  92   0.0000       0.198622         5.4048   74-A'

                 SPIN DOWN ORBITALS
  NO   OCC          E(Eh)            E(eV)    Irrep
   0   1.0000    -318.181132     -8658.1488    1-A'
   1   1.0000     -88.016855     -2395.0604    2-A'
   2   1.0000     -88.014213     -2394.9885    3-A'
   3   1.0000     -88.011857     -2394.9244    4-A'
   4   1.0000     -88.004724     -2394.7303    5-A'
   5   1.0000     -38.010687     -1034.3234    6-A'
   6   1.0000     -33.514524      -911.9766    7-A'
   7   1.0000     -33.513682      -911.9536    8-A'
   8   1.0000     -33.510747      -911.8738    1-A"
   9   1.0000      -9.847828      -267.9730    9-A'
  10   1.0000      -9.840420      -267.7714   10-A'
  11   1.0000      -9.835955      -267.6500   11-A'
  12   1.0000      -9.834541      -267.6115   12-A'
  13   1.0000      -9.832251      -267.5491   13-A'
  14   1.0000      -9.831567      -267.5305   14-A'
  15   1.0000      -9.827253      -267.4131   15-A'
  16   1.0000      -9.822555      -267.2853   16-A'
  17   1.0000      -9.820697      -267.2348   17-A'
  18   1.0000      -9.819822      -267.2109   18-A'
  19   1.0000      -9.812248      -267.0049   19-A'
  20   1.0000      -9.811643      -266.9884   20-A'
  21   1.0000      -7.590378      -206.5447   21-A'
  22   1.0000      -7.583866      -206.3675   22-A'
  23   1.0000      -7.580495      -206.2757   23-A'
  24   1.0000      -7.571791      -206.0389   24-A'
  25   1.0000      -5.512943      -150.0148   25-A'
  26   1.0000      -5.506801      -149.8477   26-A'
  27   1.0000      -5.506351      -149.8354    2-A"
  28   1.0000      -5.506257      -149.8329   27-A'
  29   1.0000      -5.503508      -149.7581   28-A'
  30   1.0000      -5.500160      -149.6670   29-A'
  31   1.0000      -5.499821      -149.6577    3-A"
  32   1.0000      -5.496987      -149.5806   30-A'
  33   1.0000      -5.496543      -149.5685    4-A"
  34   1.0000      -5.494691      -149.5181   31-A'
  35   1.0000      -5.488668      -149.3543   32-A'
  36   1.0000      -5.487821      -149.3312    5-A"
  37   1.0000      -3.990584      -108.5893   33-A'
  38   1.0000      -2.505034       -68.1654    6-A"
  39   1.0000      -2.503908       -68.1348   34-A'
  40   1.0000      -2.501937       -68.0812   35-A'
  41   1.0000      -0.601329       -16.3630   36-A'
  42   1.0000      -0.589562       -16.0428   37-A'
  43   1.0000      -0.522548       -14.2193   38-A'
  44   1.0000      -0.504256       -13.7215   39-A'
  45   1.0000      -0.488133       -13.2828   40-A'
  46   1.0000      -0.485034       -13.1984   41-A'
  47   1.0000      -0.413574       -11.2539   42-A'
  48   1.0000      -0.405132       -11.0242   43-A'
  49   1.0000      -0.382341       -10.4040   44-A'
  50   1.0000      -0.372414       -10.1339   45-A'
  51   1.0000      -0.331607        -9.0235   46-A'
  52   1.0000      -0.319807        -8.7024   47-A'
  53   1.0000      -0.294295        -8.0082   48-A'
  54   1.0000      -0.283127        -7.7043   49-A'
  55   1.0000      -0.246461        -6.7065   50-A'
  56   1.0000      -0.230562        -6.2739   51-A'
  57   1.0000      -0.190651        -5.1879   52-A'
  58   1.0000      -0.188014        -5.1161   53-A'
  59   1.0000      -0.176496        -4.8027   54-A'
  60   1.0000      -0.175186        -4.7670   55-A'
  61   1.0000      -0.154738        -4.2106   56-A'
  62   1.0000      -0.147589        -4.0161   57-A'
  63   1.0000      -0.136057        -3.7023   58-A'
  64   1.0000      -0.125263        -3.4086    7-A"
  65   1.0000      -0.116959        -3.1826    8-A"
  66   1.0000      -0.114103        -3.1049   59-A'
  67   1.0000      -0.075532        -2.0553   60-A'
  68   1.0000      -0.056423        -1.5353   61-A'
  69   1.0000      -0.049007        -1.3335    9-A"
  70   1.0000      -0.042340        -1.1521   62-A'
  71   1.0000      -0.037549        -1.0217   10-A"
  72   1.0000      -0.021173        -0.5761   63-A'
  73   1.0000      -0.021113        -0.5745   11-A"
  74   1.0000      -0.015431        -0.4199   64-A'
  75   1.0000      -0.015256        -0.4152   12-A"
  76   1.0000      -0.002814        -0.0766   65-A'
  77   1.0000       0.006911         0.1881   13-A"
  78   1.0000       0.013236         0.3602   14-A"
  79   1.0000       0.013762         0.3745   66-A'
  80   1.0000       0.026794         0.7291   67-A'
  81   1.0000       0.034403         0.9361   68-A'
  82   1.0000       0.044141         1.2012   69-A'
  83   1.0000       0.053723         1.4619   15-A"
  84   1.0000       0.058366         1.5882   16-A"
  85   1.0000       0.064288         1.7494   17-A"
  86   1.0000       0.091840         2.4991   18-A"
  87   0.0000       0.137675         3.7463   70-A'
  88   0.0000       0.179143         4.8747   71-A'
  89   0.0000       0.182507         4.9663   72-A'
  90   0.0000       0.198095         5.3904   19-A"
  91   0.0000       0.199022         5.4157   73-A'

MULLIKEN ATOMIC CHARGES AND SPIN POPULATIONS
--------------------------------------------
   0 Cu:    0.141954    0.374939
   1 S :   -0.412272    0.170710
   2 C :    0.005624   -0.007552
   3 S :   -0.473824    0.190891
   4 C :    0.050805   -0.007943
   5 S :   -0.434969    0.154173
   6 C :    0.034687   -0.006765
   7 S :   -0.404781    0.132559
   8 C :    0.035205   -0.006361
   9 C :   -0.026443    0.002254
  10 C :   -0.159300   -0.003704
  11 C :   -0.081595    0.000234
  12 H :    0.034610    0.003471
  13 C :   -0.155703   -0.001123
  14 H :    0.068953    0.000496
  15 H :    0.032745    0.001123
  16 H :    0.007253    0.001168
  17 C :   -0.064818   -0.000959
  18 C :   -0.122165   -0.002000
  19 C :   -0.142621   -0.000494
  20 H :    0.070287    0.001767
  21 C :   -0.116883   -0.001215
  22 H :    0.053954    0.002099
  23 H :    0.021344    0.001267
  24 H :    0.037952    0.000965
Sum of atomic charges         :   -2.0000000

LOEWDIN ATOMIC CHARGES AND SPIN POPULATIONS
-------------------------------------------
   0 Cu:   -0.891857    0.440247
   1 S :    0.019935    0.133633
   2 C :   -0.059245    0.007392
   3 S :   -0.052496    0.141991
   4 C :    0.062906    0.002402
   5 S :   -0.004011    0.114840
   6 C :   -0.018082    0.003975
   7 S :    0.075021    0.103167
   8 C :   -0.144508    0.010730
   9 C :    0.284191    0.004755
  10 C :    0.343151    0.004009
  11 C :    0.295566    0.000420
  12 H :   -0.435083    0.008261
  13 C :    0.327994   -0.000197
  14 H :   -0.480500    0.003866
  15 H :   -0.466581    0.000382
  16 H :   -0.363952    0.000208
  17 C :    0.300984    0.004551
  18 C :    0.313318    0.003304
  19 C :    0.309656    0.000145
  20 H :   -0.449129    0.005991
  21 C :    0.307975   -0.000390
  22 H :   -0.442354    0.005889
  23 H :   -0.405037    0.000316
  24 H :   -0.427862    0.000115

  Mayer bond orders larger than 0.100000
B(  0-Cu,  1-S ) :   0.6960 B(  0-Cu,  3-S ) :   0.7429 B(  0-Cu,  5-S ) :   0.7070
B(  0-Cu,  7-S ) :   0.6496 B(  1-S ,  2-C ) :   1.2214 B(  2-C ,  6-C ) :   1.2421
B(  2-C , 17-C ) :   1.3069 B(  3-S ,  4-C ) :   1.0686 B(  4-C ,  8-C ) :   1.2141
B(  4-C , 10-C ) :   1.3094 B(  5-S ,  6-C ) :   1.1596 B(  6-C , 18-C ) :   1.3248
B(  7-S ,  8-C ) :   1.3728 B(  8-C ,  9-C ) :   1.2414 B(  9-C , 13-C ) :   1.3130
B(  9-C , 14-H ) :   0.9568 B( 10-C , 11-C ) :   1.3680 B( 10-C , 12-H ) :   0.9958
B( 11-C , 13-C ) :   1.3341 B( 11-C , 15-H ) :   0.9824 B( 13-C , 16-H ) :   1.0086
B( 17-C , 19-C ) :   1.3555 B( 17-C , 20-H ) :   0.9650 B( 18-C , 21-C ) :   1.3661
B( 18-C , 22-H ) :   0.9789 B( 19-C , 21-C ) :   1.3382 B( 19-C , 23-H ) :   0.9951
B( 21-C , 24-H ) :   0.9824

FINAL SINGLE POINT ENERGY     -3686.806278747712

DIPOLE MOMENT
-------------
                                X             Y             Z
Electronic contribution:     -0.10635      -0.00697       0.00000
Nuclear contribution   :     -0.05100      -0.00055       0.00000
                        -----------------------------------------
Total Dipole Moment    :     -0.15735      -0.00752       0.00000
                        -----------------------------------------
Magnitude (a.u.)       :      0.15753
Magnitude (Debye)      :      0.40040

Rotational constants in cm-1:     0.033426     0.004804     0.004201
Rotational constants in MHz :  1002.080696   144.028056   125.928481

                             ****ORCA TERMINATED NORMALLY****
TOTAL RUN TIME: 0 days 6 hours 15 minutes 55 seconds 73 msec
