                         Program Version 5.0.4 -  RELEASE  -
|  1> ! RIJCOSX nofrozencore ReducedPop printbasis
|  2> ! M06L ano-rcc-dzp autoaux
|  3>
|  4> %maxcore 5000
|  5> %basis
|  6> PCDTrimBas overlap
|  7> PCDTrimAuxJ Coulomb
|  8> PCDTrimAuxJK Coulomb
|  9> PCDTrimAuxC Coulomb
| 10> PCDThresh -1
| 11> end
| 12>
| 13> %basis
| 14> newgto Cu "ano-rcc-tzp" end
| 15> newgto S "ano-rcc-tzp" end
| 16> end
| 17>
| 18> %pal
| 19> nprocs 4
| 20> end
| 21>
| 22> % sym SymThresh 1e-2 end
| 23> * xyz -2 2
| 24> Cu 0.00013854526481469256 -0.0006306877576376864 0.0016159257909827956
| 25> S 0.7490206702563006 -2.114274363979889 0.42738151472804425
| 26> C 1.145368228098329 -2.980313509120543 -0.9675238202899651
| 27> S -0.29404702488571854 0.4471541571286611 2.287858541053492
| 28> C -0.9032295556274801 2.1392851948519453 2.1161356483962126
| 29> S 0.29062359270504423 -0.4363220533769636 -2.297308035294815
| 30> C 0.9009792666271413 -2.1356881269351087 -2.0997500205835036
| 31> S -0.7482289860267602 2.114823366478704 -0.444784382547372
| 32> C -1.1397692651823559 2.964479823161146 0.9709070278219908
| 33> C -1.6348653531070976 4.305476972620748 1.0509268718785763
| 34> C -1.2000939309751086 2.765929956175383 3.302147059034978
| 35> C -1.6814995027722432 4.064914189733822 3.4115836395292027
| 36> H -1.046207515485563 2.2026251859690813 4.216866292848067
| 37> C -1.9134145601088977 4.87338976224158 2.2925007607683
| 38> H -1.7824961394683676 4.853372854327772 0.12533336634613415
| 39> H -1.877369072008596 4.443829899453769 4.4156542556985015
| 40> H -2.291895361690895 5.8912803421462 2.400155624756343
| 41> C 1.642082885323919 -4.326140956786705 -1.0449426649897544
| 42> C 1.1958268632701812 -2.757505868804712 -3.281359100833826
| 43> C 1.917461281105703 -4.884658038813279 -2.2911825641677463
| 44> H 1.7892360394537439 -4.872833026153721 -0.11869545593007054
| 45> C 1.6774916890202067 -4.056119791468702 -3.3977166655231894
| 46> H 1.042155005789561 -2.194760774851976 -4.1962880948719326
| 47> H 2.2968389356816483 -5.902101487312384 -2.4174309524374706
| 48> H 1.869183185970367 -4.422499229024045 -4.408935217911168
| 49> *
| 50>
| 51> % eprnmr
| 52> gtensor true
| 53> Nuclei = all H {aiso,adip,aorb,fgrad,rho}
| 54> Nuclei = all Cu {aiso,adip,aorb,fgrad,rho}
| 55> end
| 56>
| 57>                          ****END OF INPUT****

CARTESIAN COORDINATES (ANGSTROEM)
---------------------------------
  Cu    -0.000656    0.001612    0.000000
  S     -2.246993    0.406035    0.000000
  C     -3.182775   -1.000090    0.000000
  S      0.498520    2.296124    0.000000
  C      2.298540    2.141754    0.000000
  S     -0.487079   -2.305475    0.000000
  C     -2.294549   -2.125305    0.000000
  S      2.247407   -0.423459    0.000000
  C      3.165949    1.003314    0.000000
  C      4.594564    1.097427    0.000000
  C      2.977380    3.336163    0.000000
  C      4.361549    3.459301    0.000000
  H      2.386560    4.246457    0.000000
  C      5.211413    2.346874    0.000000
  H      5.168871    0.176080    0.000000
  H      4.774836    4.468902    0.000000
  H      6.296270    2.465300    0.000000
  C     -4.616507   -1.091648    0.000000
  C     -2.968206   -3.315254    0.000000
  C     -5.223398   -2.345671    0.000000
  H     -5.189526   -0.169634    0.000000
  C     -4.352049   -3.445320    0.000000
  H     -2.377984   -4.225765    0.000000
  H     -6.307961   -2.482715    0.000000
  H     -4.752059   -4.461950    0.000000

 Total Charge           Charge          ....   -2
 Multiplicity           Mult            ....    2
 Number of Electrons    NEL             ....  175
 Basis Dimension        Dim             ....  475

ORBITAL ENERGIES
----------------
                 SPIN UP ORBITALS
  NO   OCC          E(Eh)            E(eV)    Irrep
   0   1.0000    -318.182921     -8658.1974    1-A'
   1   1.0000     -88.023111     -2395.2306    2-A'
   2   1.0000     -88.022123     -2395.2037    3-A'
   3   1.0000     -88.009388     -2394.8572    4-A'
   4   1.0000     -88.008562     -2394.8347    5-A'
   5   1.0000     -38.027847     -1034.7903    6-A'
   6   1.0000     -33.531027      -912.4256    7-A'
   7   1.0000     -33.530039      -912.3987    8-A'
   8   1.0000     -33.516451      -912.0290    1-A"
   9   1.0000      -9.837086      -267.6807    9-A'
  10   1.0000      -9.836406      -267.6622   10-A'
  11   1.0000      -9.832358      -267.5521   11-A'
  12   1.0000      -9.832225      -267.5485   12-A'
  13   1.0000      -9.831386      -267.5256   13-A'
  14   1.0000      -9.830232      -267.4942   14-A'
  15   1.0000      -9.825204      -267.3574   15-A'
  16   1.0000      -9.824139      -267.3284   16-A'
  17   1.0000      -9.820153      -267.2199   17-A'
  18   1.0000      -9.819564      -267.2039   18-A'
  19   1.0000      -9.809334      -266.9256   19-A'
  20   1.0000      -9.807930      -266.8873   20-A'
  21   1.0000      -7.589691      -206.5260   21-A'
  22   1.0000      -7.588940      -206.5055   22-A'
  23   1.0000      -7.579770      -206.2560   23-A'
  24   1.0000      -7.579269      -206.2424   24-A'
  25   1.0000      -5.513593      -150.0325   25-A'
  26   1.0000      -5.512730      -150.0090   26-A'
  27   1.0000      -5.507835      -149.8758   27-A'
  28   1.0000      -5.507054      -149.8545   28-A'
  29   1.0000      -5.505427      -149.8103    2-A"
  30   1.0000      -5.504725      -149.7912    3-A"
  31   1.0000      -5.502657      -149.7349   29-A'
  32   1.0000      -5.502089      -149.7195   30-A'
  33   1.0000      -5.497384      -149.5914   31-A'
  34   1.0000      -5.496829      -149.5763   32-A'
  35   1.0000      -5.496014      -149.5541    4-A"
  36   1.0000      -5.495544      -149.5414    5-A"
  37   1.0000      -4.025494      -109.5392   33-A'
  38   1.0000      -2.547229       -69.3136   34-A'
  39   1.0000      -2.545030       -69.2538   35-A'
  40   1.0000      -2.518060       -68.5199    6-A"
  41   1.0000      -0.589687       -16.0462   36-A'
  42   1.0000      -0.589417       -16.0389   37-A'
  43   1.0000      -0.506601       -13.7853   38-A'
  44   1.0000      -0.505413       -13.7530   39-A'
  45   1.0000      -0.489766       -13.3272   40-A'
  46   1.0000      -0.489431       -13.3181   41-A'
  47   1.0000      -0.409361       -11.1393   42-A'
  48   1.0000      -0.406911       -11.0726   43-A'
  49   1.0000      -0.386876       -10.5274   44-A'
  50   1.0000      -0.380293       -10.3483   45-A'
  51   1.0000      -0.322946        -8.7878   46-A'
  52   1.0000      -0.320405        -8.7187   47-A'
  53   1.0000      -0.297309        -8.0902   48-A'
  54   1.0000      -0.293802        -7.9948   49-A'
  55   1.0000      -0.231556        -6.3009   50-A'
  56   1.0000      -0.226278        -6.1573   51-A'
  57   1.0000      -0.189959        -5.1691   52-A'
  58   1.0000      -0.189152        -5.1471   53-A'
  59   1.0000      -0.177996        -4.8435   54-A'
  60   1.0000      -0.174942        -4.7604   55-A'
  61   1.0000      -0.146512        -3.9868   56-A'
  62   1.0000      -0.145760        -3.9663   57-A'
  63   1.0000      -0.128590        -3.4991   58-A'
  64   1.0000      -0.117131        -3.1873    7-A"
  65   1.0000      -0.116957        -3.1826    8-A"
  66   1.0000      -0.112818        -3.0699   59-A'
  67   1.0000      -0.084099        -2.2885   60-A'
  68   1.0000      -0.070792        -1.9263   61-A'
  69   1.0000      -0.068928        -1.8756   62-A'
  70   1.0000      -0.060306        -1.6410   63-A'
  71   1.0000      -0.043565        -1.1855   64-A'
  72   1.0000      -0.039725        -1.0810    9-A"
  73   1.0000      -0.037897        -1.0312   10-A"
  74   1.0000      -0.026500        -0.7211   11-A"
  75   1.0000      -0.019302        -0.5252   12-A"
  76   1.0000      -0.016078        -0.4375   65-A'
  77   1.0000      -0.003623        -0.0986   13-A"
  78   1.0000       0.000153         0.0042   14-A"
  79   1.0000       0.001193         0.0325   66-A'
  80   1.0000       0.017880         0.4866   67-A'
  81   1.0000       0.021336         0.5806   68-A'
  82   1.0000       0.041960         1.1418   69-A'
  83   1.0000       0.048240         1.3127   15-A"
  84   1.0000       0.051568         1.4032   16-A"
  85   1.0000       0.064154         1.7457   17-A"
  86   1.0000       0.087671         2.3857   18-A"
  87   1.0000       0.102817         2.7978   70-A'
  88   0.0000       0.180769         4.9190   71-A'
  89   0.0000       0.180874         4.9218   72-A'
  90   0.0000       0.197505         5.3744   73-A'
  91   0.0000       0.197869         5.3843   74-A'
  92   0.0000       0.200322         5.4510   19-A"

                 SPIN DOWN ORBITALS
  NO   OCC          E(Eh)            E(eV)    Irrep
   0   1.0000    -318.182749     -8658.1928    1-A'
   1   1.0000     -88.021978     -2395.1998    2-A'
   2   1.0000     -88.021020     -2395.1737    3-A'
   3   1.0000     -88.008362     -2394.8293    4-A'
   4   1.0000     -88.007548     -2394.8071    5-A'
   5   1.0000     -38.012106     -1034.3620    6-A'
   6   1.0000     -33.515993      -912.0165    7-A'
   7   1.0000     -33.515034      -911.9904    8-A'
   8   1.0000     -33.512162      -911.9123    1-A"
   9   1.0000      -9.837209      -267.6841    9-A'
  10   1.0000      -9.836528      -267.6655   10-A'
  11   1.0000      -9.832452      -267.5546   11-A'
  12   1.0000      -9.832316      -267.5509   12-A'
  13   1.0000      -9.831362      -267.5249   13-A'
  14   1.0000      -9.830207      -267.4935   14-A'
  15   1.0000      -9.825121      -267.3551   15-A'
  16   1.0000      -9.824061      -267.3263   16-A'
  17   1.0000      -9.820141      -267.2196   17-A'
  18   1.0000      -9.819553      -267.2036   18-A'
  19   1.0000      -9.809299      -266.9246   19-A'
  20   1.0000      -9.807897      -266.8864   20-A'
  21   1.0000      -7.588900      -206.5045   21-A'
  22   1.0000      -7.588173      -206.4847   22-A'
  23   1.0000      -7.579071      -206.2370   23-A'
  24   1.0000      -7.578578      -206.2236   24-A'
  25   1.0000      -5.512681      -150.0077   25-A'
  26   1.0000      -5.511834      -149.9846   26-A'
  27   1.0000      -5.505313      -149.8072   27-A'
  28   1.0000      -5.504617      -149.7882   28-A'
  29   1.0000      -5.504571      -149.7870    2-A"
  30   1.0000      -5.503894      -149.7686    3-A"
  31   1.0000      -5.501744      -149.7101   29-A'
  32   1.0000      -5.501189      -149.6950   30-A'
  33   1.0000      -5.495293      -149.5345   31-A'
  34   1.0000      -5.495218      -149.5325    4-A"
  35   1.0000      -5.494763      -149.5201   32-A'
  36   1.0000      -5.494756      -149.5199    5-A"
  37   1.0000      -3.991995      -108.6277   33-A'
  38   1.0000      -2.506431       -68.2034    6-A"
  39   1.0000      -2.505278       -68.1721   34-A'
  40   1.0000      -2.503434       -68.1219   35-A'
  41   1.0000      -0.589290       -16.0354   36-A'
  42   1.0000      -0.589041       -16.0286   37-A'
  43   1.0000      -0.505296       -13.7498   38-A'
  44   1.0000      -0.504172       -13.7192   39-A'
  45   1.0000      -0.488657       -13.2970   40-A'
  46   1.0000      -0.488370       -13.2892   41-A'
  47   1.0000      -0.405616       -11.0374   42-A'
  48   1.0000      -0.403118       -10.9694   43-A'
  49   1.0000      -0.383504       -10.4357   44-A'
  50   1.0000      -0.377018       -10.2592   45-A'
  51   1.0000      -0.321670        -8.7531   46-A'
  52   1.0000      -0.318815        -8.6754   47-A'
  53   1.0000      -0.295583        -8.0432   48-A'
  54   1.0000      -0.291665        -7.9366   49-A'
  55   1.0000      -0.230941        -6.2842   50-A'
  56   1.0000      -0.225582        -6.1384   51-A'
  57   1.0000      -0.188977        -5.1423   52-A'
  58   1.0000      -0.188245        -5.1224   53-A'
  59   1.0000      -0.177452        -4.8287   54-A'
  60   1.0000      -0.174002        -4.7348   55-A'
  61   1.0000      -0.145755        -3.9662   56-A'
  62   1.0000      -0.144513        -3.9324   57-A'
  63   1.0000      -0.127024        -3.4565   58-A'
  64   1.0000      -0.116940        -3.1821    7-A"
  65   1.0000      -0.116756        -3.1771    8-A"
  66   1.0000      -0.112032        -3.0485   59-A'
  67   1.0000      -0.082299        -2.2395   60-A'
  68   1.0000      -0.069095        -1.8802   61-A'
  69   1.0000      -0.059915        -1.6304   62-A'
  70   1.0000      -0.058595        -1.5945   63-A'
  71   1.0000      -0.037642        -1.0243    9-A"
  72   1.0000      -0.037003        -1.0069   10-A"
  73   1.0000      -0.023315        -0.6344   11-A"
  74   1.0000      -0.018519        -0.5039   12-A"
  75   1.0000      -0.017781        -0.4838   64-A'
  76   1.0000      -0.001235        -0.0336   65-A'
  77   1.0000       0.005996         0.1632   13-A"
  78   1.0000       0.012267         0.3338   14-A"
  79   1.0000       0.013959         0.3798   66-A'
  80   1.0000       0.025174         0.6850   67-A'
  81   1.0000       0.034647         0.9428   68-A'
  82   1.0000       0.049606         1.3498   69-A'
  83   1.0000       0.051204         1.3933   15-A"
  84   1.0000       0.057173         1.5558   16-A"
  85   1.0000       0.065932         1.7941   17-A"
  86   1.0000       0.091703         2.4954   18-A"
  87   0.0000       0.135347         3.6830   70-A'
  88   0.0000       0.182438         4.9644   71-A'
  89   0.0000       0.182530         4.9669   72-A'
  90   0.0000       0.198808         5.4098   73-A'
  91   0.0000       0.199093         5.4176   74-A'

MULLIKEN ATOMIC CHARGES AND SPIN POPULATIONS
--------------------------------------------
   0 Cu:    0.159488    0.371288
   1 S :   -0.376816    0.154682
   2 C :    0.003091   -0.007674
   3 S :   -0.448868    0.171820
   4 C :    0.018087   -0.008498
   5 S :   -0.451886    0.175810
   6 C :    0.016214   -0.008744
   7 S :   -0.383939    0.156286
   8 C :    0.006866   -0.007417
   9 C :   -0.156190   -0.000279
  10 C :   -0.023755   -0.002318
  11 C :   -0.141608   -0.001102
  12 H :    0.072352    0.002188
  13 C :   -0.133201   -0.000984
  14 H :    0.056440    0.001330
  15 H :    0.035564    0.000326
  16 H :    0.020094    0.001964
  17 C :   -0.164271    0.000056
  18 C :   -0.014034   -0.002343
  19 C :   -0.132304   -0.001080
  20 H :    0.054925    0.001203
  21 C :   -0.141844   -0.001100
  22 H :    0.072365    0.002211
  23 H :    0.017210    0.002113
  24 H :    0.036017    0.000262
Sum of atomic charges         :   -2.0000000

LOEWDIN ATOMIC CHARGES AND SPIN POPULATIONS
-------------------------------------------
   0 Cu:   -0.889039    0.439106
   1 S :   -0.018482    0.115237
   2 C :   -0.043591    0.007588
   3 S :    0.028393    0.132772
   4 C :   -0.012968    0.001812
   5 S :    0.028525    0.136924
   6 C :   -0.009328    0.001379
   7 S :   -0.016222    0.116901
   8 C :   -0.044282    0.007406
   9 C :    0.313085    0.003994
  10 C :    0.290913    0.003336
  11 C :    0.309497   -0.000552
  12 H :   -0.466235    0.008665
  13 C :    0.312501    0.000237
  14 H :   -0.438245    0.004090
  15 H :   -0.422630   -0.000228
  16 H :   -0.407935    0.000677
  17 C :    0.313249    0.004049
  18 C :    0.287138    0.003388
  19 C :    0.312315    0.000267
  20 H :   -0.437620    0.003808
  21 C :    0.309328   -0.000561
  22 H :   -0.469312    0.009219
  23 H :   -0.405426    0.000749
  24 H :   -0.423629   -0.000264

  Mayer bond orders larger than 0.100000
B(  0-Cu,  1-S ) :   0.7172 B(  0-Cu,  3-S ) :   0.6826 B(  0-Cu,  5-S ) :   0.6718
B(  0-Cu,  7-S ) :   0.7126 B(  1-S ,  2-C ) :   1.2091 B(  2-C ,  6-C ) :   1.2420
B(  2-C , 17-C ) :   1.3176 B(  3-S ,  4-C ) :   1.1589 B(  4-C ,  8-C ) :   1.2430
B(  4-C , 10-C ) :   1.3302 B(  5-S ,  6-C ) :   1.1553 B(  6-C , 18-C ) :   1.3329
B(  7-S ,  8-C ) :   1.2051 B(  8-C ,  9-C ) :   1.3175 B(  9-C , 13-C ) :   1.3694
B(  9-C , 14-H ) :   0.9773 B( 10-C , 11-C ) :   1.3429 B( 10-C , 12-H ) :   0.9610
B( 11-C , 13-C ) :   1.3413 B( 11-C , 15-H ) :   0.9869 B( 13-C , 16-H ) :   0.9941
B( 17-C , 19-C ) :   1.3694 B( 17-C , 20-H ) :   0.9783 B( 18-C , 21-C ) :   1.3387
B( 18-C , 22-H ) :   0.9603 B( 19-C , 21-C ) :   1.3417 B( 19-C , 23-H ) :   0.9956
B( 21-C , 24-H ) :   0.9868

FINAL SINGLE POINT ENERGY     -3686.881542386876

DIPOLE MOMENT
-------------
                                X             Y             Z
Electronic contribution:      0.00680      -0.00223      -0.00000
Nuclear contribution   :      0.00213       0.00806       0.00000
                        -----------------------------------------
Total Dipole Moment    :      0.00893       0.00582      -0.00000
                        -----------------------------------------
Magnitude (a.u.)       :      0.01066
Magnitude (Debye)      :      0.02709

Rotational constants in cm-1:     0.033331     0.004801     0.004197
Rotational constants in MHz :   999.229884   143.936608   125.813485

                             ****ORCA TERMINATED NORMALLY****
TOTAL RUN TIME: 0 days 5 hours 28 minutes 6 seconds 627 msec
