                         Program Version 5.0.4 -  RELEASE  -
|  1> ! RIJCOSX nofrozencore ReducedPop printbasis
|  2> ! M06L ano-rcc-dzp autoaux
|  3>
|  4> %maxcore 5000
|  5> %basis
|  6> PCDTrimBas overlap
|  7> PCDTrimAuxJ Coulomb
|  8> PCDTrimAuxJK Coulomb
|  9> PCDTrimAuxC Coulomb
| 10> PCDThresh -1
| 11> end
| 12>
| 13> %basis
| 14> newgto Cu "ano-rcc-tzp" end
| 15> newgto S "ano-rcc-tzp" end
| 16> end
| 17>
| 18> %pal
| 19> nprocs 8
| 20> end
| 21>
| 22> % sym SymThresh 1e-2 end
| 23> * xyz -2 2
| 24> Cu 6.854229676448466e-06 -5.124834405196e-06 -5.268359124225734e-06
| 25> S 2.0847763930832395 0.23941979514153167 -0.9859959161306019
| 26> C 2.4055152636047574 -1.3042243308719934 -1.6794825412370429
| 27> S 0.020879987724374858 2.1963044342066174 0.7422029536326166
| 28> C -1.4810963885920752 2.3802832731995895 1.5747619650444824
| 29> S -0.020281938788462756 -2.196382729741623 -0.742536185202929
| 30> C 1.4777710182180317 -2.3772806504586637 -1.5720290072052348
| 31> S -2.0846570372854543 -0.23997625794542934 0.9857440107090383
| 32> C -2.408915059076488 1.3070833916174218 1.6822044149307234
| 33> C -3.618669391914535 1.536034562065499 2.3804692880125846
| 34> C -1.8197020418517253 3.6183412878070094 2.1726461828157335
| 35> C -3.0305464942525204 3.81189933395222 2.8593366686386164
| 36> H -1.0623694617651656 4.390199232727985 2.0492459567956702
| 37> C -3.9225576465583054 2.7797833706086807 2.962517957996443
| 38> H -4.274403401413811 0.6678474436404802 2.4187967258589373
| 39> H -3.4134308349994456 4.714106662595263 3.3647749973035253
| 40> H -4.817004773397451 3.092324051787182 3.5278998260587953
| 41> C 3.6187483482615237 -1.5357264763402554 -2.380404126051507
| 42> C 1.81862337263856 -3.6183138538412156 -2.172084156031593
| 43> C 3.921947321729887 -2.7846138959798568 -2.963861196710239
| 44> H 4.261559476940511 -0.6552069885892322 -2.407883355791835
| 45> C 3.035525287085638 -3.810610033325988 -2.8614454205965507
| 46> H 1.0455748504533382 -4.375388065208765 -2.035564449108203
| 47> H 4.801812796619878 -3.1545024232174974 -3.541431637240727
| 48> H 3.475014125186281 -4.690522502463597 -3.3882405388836356
| 49> *
| 50>
| 51> % eprnmr
| 52> gtensor true
| 53> Nuclei = all H {aiso,adip,aorb,fgrad,rho}
| 54> Nuclei = all Cu {aiso,adip,aorb,fgrad,rho}
| 55> end
| 56>
| 57>                          ****END OF INPUT****

CARTESIAN COORDINATES (ANGSTROEM)
---------------------------------
  Cu    -0.000000    0.000000    0.000010
  S      1.614286    0.000000    1.664306
  C      0.711285    0.000000    3.130723
  S      1.614625    0.000000   -1.663746
  C      0.711363    0.000000   -3.135949
  S     -1.614286    0.000000    1.664306
  C     -0.711285    0.000000    3.130723
  S     -1.614625    0.000000   -1.663746
  C     -0.711363    0.000000   -3.135949
  C     -1.379807    0.000000   -4.383901
  C      1.379807    0.000000   -4.383901
  C      0.684031    0.000000   -5.605576
  H      2.465239    0.000000   -4.301988
  C     -0.684031    0.000000   -5.605576
  H     -2.465239    0.000000   -4.301988
  H      1.075501    0.000000   -6.636818
  H     -1.075501    0.000000   -6.636818
  C      1.380310    0.000000    4.383329
  C     -1.380310    0.000000    4.383329
  C      0.679871    0.000000    5.608868
  H      2.465813    0.000000    4.278340
  C     -0.679871    0.000000    5.608868
  H     -2.465813    0.000000    4.278340
  H      1.017745    0.000000    6.672155
  H     -1.017745    0.000000    6.672155

 Total Charge           Charge          ....   -2
 Multiplicity           Mult            ....    2
 Number of Electrons    NEL             ....  175
 Basis Dimension        Dim             ....  475

ORBITAL ENERGIES
----------------
                 SPIN UP ORBITALS
  NO   OCC          E(Eh)            E(eV)    Irrep
   0   1.0000    -318.184179     -8658.2317    1-A1
   1   1.0000     -88.016163     -2395.0415    1-B1
   2   1.0000     -88.016158     -2395.0414    2-A1
   3   1.0000     -88.016080     -2395.0393    2-B1
   4   1.0000     -88.016061     -2395.0388    3-A1
   5   1.0000     -38.029372     -1034.8318    4-A1
   6   1.0000     -33.532505      -912.4658    3-B1
   7   1.0000     -33.531700      -912.4439    5-A1
   8   1.0000     -33.517854      -912.0672    1-B2
   9   1.0000      -9.834354      -267.6064    6-A1
  10   1.0000      -9.834271      -267.6041    7-A1
  11   1.0000      -9.834020      -267.5973    4-B1
  12   1.0000      -9.833938      -267.5951    5-B1
  13   1.0000      -9.824961      -267.3508    8-A1
  14   1.0000      -9.824386      -267.3351    6-B1
  15   1.0000      -9.824313      -267.3332    9-A1
  16   1.0000      -9.823779      -267.3186    7-B1
  17   1.0000      -9.820818      -267.2380    8-B1
  18   1.0000      -9.820814      -267.2379   10-A1
  19   1.0000      -9.820019      -267.2163    9-B1
  20   1.0000      -9.820015      -267.2162   11-A1
  21   1.0000      -7.585259      -206.4054   10-B1
  22   1.0000      -7.585249      -206.4051   12-A1
  23   1.0000      -7.585216      -206.4042   11-B1
  24   1.0000      -7.585204      -206.4039   13-A1
  25   1.0000      -5.508337      -149.8895   12-B1
  26   1.0000      -5.508337      -149.8895   14-A1
  27   1.0000      -5.508323      -149.8891   13-B1
  28   1.0000      -5.508323      -149.8891   15-A1
  29   1.0000      -5.503147      -149.7482   14-B1
  30   1.0000      -5.503147      -149.7482   16-A1
  31   1.0000      -5.503118      -149.7474   15-B1
  32   1.0000      -5.503117      -149.7474   17-A1
  33   1.0000      -5.501346      -149.6992    1-A2
  34   1.0000      -5.501345      -149.6992    2-B2
  35   1.0000      -5.501294      -149.6978    2-A2
  36   1.0000      -5.501294      -149.6978    3-B2
  37   1.0000      -4.026992      -109.5800   18-A1
  38   1.0000      -2.548412       -69.3458   16-B1
  39   1.0000      -2.546971       -69.3066   19-A1
  40   1.0000      -2.519409       -68.5566    4-B2
  41   1.0000      -0.588412       -16.0115   20-A1
  42   1.0000      -0.587818       -15.9953   21-A1
  43   1.0000      -0.512145       -13.9362   22-A1
  44   1.0000      -0.510101       -13.8805   23-A1
  45   1.0000      -0.486567       -13.2402   17-B1
  46   1.0000      -0.485245       -13.2042   18-B1
  47   1.0000      -0.407596       -11.0913   19-B1
  48   1.0000      -0.404737       -11.0135   20-B1
  49   1.0000      -0.395939       -10.7741   24-A1
  50   1.0000      -0.389888       -10.6094   25-A1
  51   1.0000      -0.323584        -8.8052   26-A1
  52   1.0000      -0.320025        -8.7083   27-A1
  53   1.0000      -0.291406        -7.9296   21-B1
  54   1.0000      -0.286330        -7.7914   22-B1
  55   1.0000      -0.238932        -6.5017   28-A1
  56   1.0000      -0.233920        -6.3653   29-A1
  57   1.0000      -0.185533        -5.0486   30-A1
  58   1.0000      -0.182981        -4.9792   31-A1
  59   1.0000      -0.173658        -4.7255   23-B1
  60   1.0000      -0.169222        -4.6048   24-B1
  61   1.0000      -0.144642        -3.9359   25-B1
  62   1.0000      -0.141218        -3.8427   26-B1
  63   1.0000      -0.131855        -3.5880   32-A1
  64   1.0000      -0.116606        -3.1730    5-B2
  65   1.0000      -0.116104        -3.1594    6-B2
  66   1.0000      -0.108834        -2.9615   33-A1
  67   1.0000      -0.083171        -2.2632   34-A1
  68   1.0000      -0.072791        -1.9807   27-B1
  69   1.0000      -0.068359        -1.8601   28-B1
  70   1.0000      -0.063179        -1.7192   35-A1
  71   1.0000      -0.043350        -1.1796    7-B2
  72   1.0000      -0.041730        -1.1355    8-B2
  73   1.0000      -0.034927        -0.9504   29-B1
  74   1.0000      -0.030730        -0.8362   36-A1
  75   1.0000      -0.027078        -0.7368    3-A2
  76   1.0000      -0.017765        -0.4834    4-A2
  77   1.0000      -0.003255        -0.0886   37-A1
  78   1.0000      -0.002598        -0.0707    5-A2
  79   1.0000      -0.001562        -0.0425    9-B2
  80   1.0000       0.015981         0.4349   38-A1
  81   1.0000       0.017269         0.4699   39-A1
  82   1.0000       0.031682         0.8621   30-B1
  83   1.0000       0.050083         1.3628    6-A2
  84   1.0000       0.051789         1.4093    7-A2
  85   1.0000       0.060955         1.6587   10-B2
  86   1.0000       0.085722         2.3326   11-B2
  87   1.0000       0.101979         2.7750   31-B1
  88   0.0000       0.179534         4.8854   40-A1
  89   0.0000       0.179952         4.8967   41-A1
  90   0.0000       0.194567         5.2944   12-B2
  91   0.0000       0.198160         5.3922   13-B2
  92   0.0000       0.199293         5.4230   32-B1

                 SPIN DOWN ORBITALS
  NO   OCC          E(Eh)            E(eV)    Irrep
   0   1.0000    -318.184004     -8658.2269    1-A1
   1   1.0000     -88.015094     -2395.0125    1-B1
   2   1.0000     -88.015090     -2395.0124    2-A1
   3   1.0000     -88.015017     -2395.0104    2-B1
   4   1.0000     -88.014998     -2395.0099    3-A1
   5   1.0000     -38.013449     -1034.3985    4-A1
   6   1.0000     -33.517295      -912.0520    3-B1
   7   1.0000     -33.516519      -912.0308    5-A1
   8   1.0000     -33.513518      -911.9492    1-B2
   9   1.0000      -9.834465      -267.6094    6-A1
  10   1.0000      -9.834384      -267.6072    7-A1
  11   1.0000      -9.834131      -267.6003    4-B1
  12   1.0000      -9.834051      -267.5981    5-B1
  13   1.0000      -9.824935      -267.3501    8-A1
  14   1.0000      -9.824360      -267.3344    6-B1
  15   1.0000      -9.824288      -267.3325    9-A1
  16   1.0000      -9.823754      -267.3179    7-B1
  17   1.0000      -9.820754      -267.2363    8-B1
  18   1.0000      -9.820750      -267.2362   10-A1
  19   1.0000      -9.819956      -267.2146    9-B1
  20   1.0000      -9.819952      -267.2145   11-A1
  21   1.0000      -7.584531      -206.3856   10-B1
  22   1.0000      -7.584521      -206.3853   12-A1
  23   1.0000      -7.584483      -206.3843   11-B1
  24   1.0000      -7.584472      -206.3840   13-A1
  25   1.0000      -5.507409      -149.8642   12-B1
  26   1.0000      -5.507408      -149.8642   14-A1
  27   1.0000      -5.507391      -149.8637   13-B1
  28   1.0000      -5.507390      -149.8637   15-A1
  29   1.0000      -5.500921      -149.6877   14-B1
  30   1.0000      -5.500921      -149.6877   16-A1
  31   1.0000      -5.500877      -149.6865   15-B1
  32   1.0000      -5.500876      -149.6865   17-A1
  33   1.0000      -5.500536      -149.6772    1-A2
  34   1.0000      -5.500536      -149.6772    2-B2
  35   1.0000      -5.500480      -149.6757    2-A2
  36   1.0000      -5.500480      -149.6757    3-B2
  37   1.0000      -3.993097      -108.6577   18-A1
  38   1.0000      -2.507669       -68.2371    4-B2
  39   1.0000      -2.506156       -68.1960   16-B1
  40   1.0000      -2.504687       -68.1560   19-A1
  41   1.0000      -0.588012       -16.0006   20-A1
  42   1.0000      -0.587413       -15.9843   21-A1
  43   1.0000      -0.510879       -13.9017   22-A1
  44   1.0000      -0.508854       -13.8466   23-A1
  45   1.0000      -0.485219       -13.2035   17-B1
  46   1.0000      -0.483811       -13.1652   18-B1
  47   1.0000      -0.403756       -10.9868   19-B1
  48   1.0000      -0.400795       -10.9062   20-B1
  49   1.0000      -0.393026       -10.6948   24-A1
  50   1.0000      -0.387030       -10.5316   25-A1
  51   1.0000      -0.322070        -8.7640   26-A1
  52   1.0000      -0.318165        -8.6577   27-A1
  53   1.0000      -0.289729        -7.8839   21-B1
  54   1.0000      -0.284404        -7.7390   22-B1
  55   1.0000      -0.238280        -6.4839   28-A1
  56   1.0000      -0.233203        -6.3458   29-A1
  57   1.0000      -0.184606        -5.0234   30-A1
  58   1.0000      -0.182071        -4.9544   31-A1
  59   1.0000      -0.173002        -4.7076   23-B1
  60   1.0000      -0.168174        -4.5763   24-B1
  61   1.0000      -0.143931        -3.9166   25-B1
  62   1.0000      -0.139937        -3.8079   26-B1
  63   1.0000      -0.130362        -3.5473   32-A1
  64   1.0000      -0.116380        -3.1669    5-B2
  65   1.0000      -0.115859        -3.1527    6-B2
  66   1.0000      -0.107758        -2.9323   33-A1
  67   1.0000      -0.081875        -2.2279   34-A1
  68   1.0000      -0.071370        -1.9421   27-B1
  69   1.0000      -0.061591        -1.6760   35-A1
  70   1.0000      -0.054433        -1.4812   28-B1
  71   1.0000      -0.041650        -1.1334    7-B2
  72   1.0000      -0.040664        -1.1065    8-B2
  73   1.0000      -0.023862        -0.6493   36-A1
  74   1.0000      -0.023032        -0.6267    3-A2
  75   1.0000      -0.016721        -0.4550    4-A2
  76   1.0000      -0.005483        -0.1492   29-B1
  77   1.0000       0.006618         0.1801    5-A2
  78   1.0000       0.007674         0.2088   37-A1
  79   1.0000       0.010895         0.2965    9-B2
  80   1.0000       0.023997         0.6530   38-A1
  81   1.0000       0.031647         0.8611   39-A1
  82   1.0000       0.040025         1.0891   30-B1
  83   1.0000       0.052733         1.4349    6-A2
  84   1.0000       0.056946         1.5496    7-A2
  85   1.0000       0.062779         1.7083   10-B2
  86   1.0000       0.089798         2.4435   11-B2
  87   0.0000       0.135194         3.6788   31-B1
  88   0.0000       0.180286         4.9058   40-A1
  89   0.0000       0.180772         4.9191   41-A1
  90   0.0000       0.194593         5.2951   12-B2
  91   0.0000       0.198376         5.3981   13-B2

MULLIKEN ATOMIC CHARGES AND SPIN POPULATIONS
--------------------------------------------
   0 Cu:    0.135047    0.376789
   1 S :   -0.412240    0.161306
   2 C :    0.048313   -0.006950
   3 S :   -0.414911    0.162451
   4 C :    0.042027   -0.007113
   5 S :   -0.412240    0.161306
   6 C :    0.048313   -0.006950
   7 S :   -0.414911    0.162451
   8 C :    0.042027   -0.007113
   9 C :   -0.147136   -0.001815
  10 C :   -0.147136   -0.001815
  11 C :   -0.102575   -0.000572
  12 H :    0.070295    0.002308
  13 C :   -0.102575   -0.000572
  14 H :    0.070295    0.002308
  15 H :    0.018994    0.000977
  16 H :    0.018994    0.000977
  17 C :   -0.162489   -0.001834
  18 C :   -0.162489   -0.001834
  19 C :   -0.089620   -0.000480
  20 H :    0.071842    0.002354
  21 C :   -0.089620   -0.000480
  22 H :    0.071842    0.002354
  23 H :    0.009975    0.000974
  24 H :    0.009975    0.000974
Sum of atomic charges         :   -2.0000000

LOEWDIN ATOMIC CHARGES AND SPIN POPULATIONS
-------------------------------------------
   0 Cu:   -0.878971    0.443649
   1 S :    0.020737    0.121875
   2 C :   -0.043572    0.005606
   3 S :    0.018480    0.122976
   4 C :   -0.042226    0.005508
   5 S :    0.020737    0.121875
   6 C :   -0.043572    0.005606
   7 S :    0.018480    0.122976
   8 C :   -0.042226    0.005508
   9 C :    0.314507    0.003849
  10 C :    0.314507    0.003849
  11 C :    0.299780   -0.000041
  12 H :   -0.460791    0.006925
  13 C :    0.299780   -0.000041
  14 H :   -0.460791    0.006925
  15 H :   -0.408536    0.000256
  16 H :   -0.408536    0.000256
  17 C :    0.315673    0.003820
  18 C :    0.315673    0.003820
  19 C :    0.294060   -0.000007
  20 H :   -0.465211    0.007123
  21 C :    0.294060   -0.000007
  22 H :   -0.465211    0.007123
  23 H :   -0.403415    0.000286
  24 H :   -0.403415    0.000286

  Mayer bond orders larger than 0.100000
B(  0-Cu,  1-S ) :   0.7002 B(  0-Cu,  3-S ) :   0.7015 B(  0-Cu,  5-S ) :   0.7002
B(  0-Cu,  7-S ) :   0.7015 B(  1-S ,  2-C ) :   1.1992 B(  2-C ,  6-C ) :   1.2256
B(  2-C , 17-C ) :   1.3314 B(  3-S ,  4-C ) :   1.1954 B(  4-C ,  8-C ) :   1.2304
B(  4-C , 10-C ) :   1.3282 B(  5-S ,  6-C ) :   1.1992 B(  6-C , 18-C ) :   1.3314
B(  7-S ,  8-C ) :   1.1954 B(  8-C ,  9-C ) :   1.3282 B(  9-C , 13-C ) :   1.3530
B(  9-C , 14-H ) :   0.9681 B( 10-C , 11-C ) :   1.3530 B( 10-C , 12-H ) :   0.9681
B( 11-C , 13-C ) :   1.3398 B( 11-C , 15-H ) :   0.9893 B( 13-C , 16-H ) :   0.9893
B( 17-C , 19-C ) :   1.3492 B( 17-C , 20-H ) :   0.9673 B( 18-C , 21-C ) :   1.3492
B( 18-C , 22-H ) :   0.9673 B( 19-C , 21-C ) :   1.3382 B( 19-C , 23-H ) :   0.9903
B( 21-C , 24-H ) :   0.9903

FINAL SINGLE POINT ENERGY     -3686.900579718100

DIPOLE MOMENT
-------------
                                X             Y             Z
Electronic contribution:      0.00000      -0.00000      -0.08398
Nuclear contribution   :     -0.00000       0.00000       0.02185
                        -----------------------------------------
Total Dipole Moment    :      0.00000      -0.00000      -0.06213
                        -----------------------------------------
Magnitude (a.u.)       :      0.06213
Magnitude (Debye)      :      0.15792

Rotational constants in cm-1:     0.033625     0.004798     0.004199
Rotational constants in MHz :  1008.059701   143.847302   125.884006

                             ****ORCA TERMINATED NORMALLY****
TOTAL RUN TIME: 0 days 6 hours 58 minutes 34 seconds 147 msec
