                         Program Version 5.0.4 -  RELEASE  -
|  1> ! RIJCOSX nofrozencore ReducedPop printbasis
|  2> ! M06L ano-rcc-dzp autoaux
|  3>
|  4> %maxcore 5000
|  5> %basis
|  6> PCDTrimBas overlap
|  7> PCDTrimAuxJ Coulomb
|  8> PCDTrimAuxJK Coulomb
|  9> PCDTrimAuxC Coulomb
| 10> PCDThresh -1
| 11> end
| 12>
| 13> %basis
| 14> newgto Cu "ano-rcc-tzp" end
| 15> newgto S "ano-rcc-tzp" end
| 16> end
| 17>
| 18> %pal
| 19> nprocs 12
| 20> end
| 21>
| 22> % sym SymThresh 1e-2 end
| 23> * xyz -2 2
| 24> Cu -9.210250975269593e-08 -5.024119624901508e-07 -8.597088737730057e-07
| 25> S -2.0253368401984906 1.0509129622971862 -0.40722929400590346
| 26> C -1.5854831360348933 2.5789907757274957 -1.1414199280871387
| 27> S -1.0508363191472208 -1.7352043217743889 1.1211598488295969
| 28> C 0.2542649931597277 -2.749634506089493 1.6797928559058928
| 29> S 1.051199755650705 1.737186839378375 -1.1177674376136886
| 30> C -0.26184595073747213 2.7082809774569285 -1.750555493306149
| 31> S 2.0249732194899868 -1.0528964847250974 0.4038351633722476
| 32> C 1.59306694879044 -2.537621672324094 1.2122092164624818
| 33> C 2.599839698667881 -3.372361231358237 1.7321920346533344
| 34> C -0.029312287257120526 -3.9848060378257917 2.291926973118444
| 35> C 0.9829894448205346 -4.809451425743701 2.7765040087405417
| 36> H -1.0778213439341693 -4.27311036059635 2.4118895085326923
| 37> C 2.2971969475694443 -4.578898409131806 2.358527163513884
| 38> H 3.6422398730418966 -3.0665924595971172 1.602647529166925
| 39> H 0.7223027261387519 -5.746786025920322 3.265090354477565
| 40> H 3.1054152729571145 -5.2081457260503115 2.727584006903099
| 41> C -2.6029545887813534 3.355367312737739 -1.7612695090880386
| 42> C 0.032427177370592766 4.001799956446289 -2.2628494986837397
| 43> C -2.2916868228209797 4.608955707199742 -2.30709422043154
| 44> H -3.6575767829659154 2.9829308196032573 -1.745806250827606
| 45> C -0.9885048194120553 4.779365490193903 -2.827985955228691
| 46> H 1.0931537240688463 4.35674972845313 -2.268770792283125
| 47> H -3.105946274543963 5.2052541355048545 -2.7325314069710323
| 48> H -0.7217306159662923 5.749911823449611 -3.259741021364319
| 49> *
| 50>
| 51> % eprnmr
| 52> gtensor true
| 53> Nuclei = all H {aiso,adip,aorb,fgrad,rho}
| 54> Nuclei = all Cu {aiso,adip,aorb,fgrad,rho}
| 55> end
| 56>
| 57>                          ****END OF INPUT****

CARTESIAN COORDINATES (ANGSTROEM)
---------------------------------
  Cu    -0.000000   -0.000000   -0.000000
  S      0.274298   -1.592165    1.661931
  C      0.290397   -0.671278    3.151642
  S      0.278184   -1.591474   -1.661931
  C      0.209343   -0.685689   -3.151642
  S     -0.274298    1.592165    1.661931
  C     -0.290397    0.671278    3.151642
  S     -0.278184    1.591474   -1.661931
  C     -0.209343    0.685689   -3.151642
  C     -0.207437    1.362783   -4.385461
  C      0.207437   -1.362783   -4.385461
  C      0.182195   -0.674948   -5.596188
  H      0.261264   -2.455428   -4.375043
  C     -0.182195    0.674948   -5.596188
  H     -0.261264    2.455428   -4.375043
  H      0.205155   -1.233888   -6.530201
  H     -0.205155    1.233888   -6.530201
  C      0.174137   -1.368704    4.385460
  C     -0.174137    1.368704    4.385460
  C      0.241125   -0.664471    5.596188
  H      0.097338   -2.484573    4.375043
  C     -0.241125    0.664471    5.596188
  H     -0.097338    2.484573    4.375043
  H      0.199259   -1.234936    6.530201
  H     -0.199259    1.234936    6.530201

 Total Charge           Charge          ....   -2
 Multiplicity           Mult            ....    2
 Number of Electrons    NEL             ....  175
 Basis Dimension        Dim             ....  475

ORBITAL ENERGIES
----------------
                 SPIN UP ORBITALS
  NO   OCC          E(Eh)            E(eV)    Irrep
   0   1.0000    -318.183171     -8658.2043    1-A
   1   1.0000     -88.016872     -2395.0609    1-B
   2   1.0000     -88.016867     -2395.0607    2-A
   3   1.0000     -88.016009     -2395.0374    2-B
   4   1.0000     -88.016000     -2395.0371    3-A
   5   1.0000     -38.028404     -1034.8055    4-A
   6   1.0000     -33.531538      -912.4395    3-B
   7   1.0000     -33.530639      -912.4151    5-A
   8   1.0000     -33.517007      -912.0441    4-B
   9   1.0000      -9.839755      -267.7533    6-A
  10   1.0000      -9.839523      -267.7470    5-B
  11   1.0000      -9.835290      -267.6319    7-A
  12   1.0000      -9.834989      -267.6237    6-B
  13   1.0000      -9.826425      -267.3906    8-A
  14   1.0000      -9.826074      -267.3811    7-B
  15   1.0000      -9.825098      -267.3545    9-A
  16   1.0000      -9.824725      -267.3444   10-A
  17   1.0000      -9.824719      -267.3442    8-B
  18   1.0000      -9.824687      -267.3433    9-B
  19   1.0000      -9.819279      -267.1962   10-B
  20   1.0000      -9.819277      -267.1961   11-A
  21   1.0000      -7.585350      -206.4079   11-B
  22   1.0000      -7.585347      -206.4078   12-A
  23   1.0000      -7.584639      -206.3885   12-B
  24   1.0000      -7.584632      -206.3883   13-A
  25   1.0000      -5.508496      -149.8938   13-B
  26   1.0000      -5.508496      -149.8938   14-A
  27   1.0000      -5.507828      -149.8756   14-B
  28   1.0000      -5.507828      -149.8756   15-A
  29   1.0000      -5.503305      -149.7526   15-B
  30   1.0000      -5.503305      -149.7525   16-A
  31   1.0000      -5.502575      -149.7327   16-B
  32   1.0000      -5.502575      -149.7327   17-A
  33   1.0000      -5.501498      -149.7034   18-A
  34   1.0000      -5.501498      -149.7034   17-B
  35   1.0000      -5.500716      -149.6821   19-A
  36   1.0000      -5.500715      -149.6821   18-B
  37   1.0000      -4.025940      -109.5514   20-A
  38   1.0000      -2.547350       -69.3169   19-B
  39   1.0000      -2.545726       -69.2727   21-A
  40   1.0000      -2.518551       -68.5333   20-B
  41   1.0000      -0.589237       -16.0340   22-A
  42   1.0000      -0.585643       -15.9361   23-A
  43   1.0000      -0.503977       -13.7139   24-A
  44   1.0000      -0.500160       -13.6100   25-A
  45   1.0000      -0.489750       -13.3268   21-B
  46   1.0000      -0.486396       -13.2355   22-B
  47   1.0000      -0.409688       -11.1482   23-B
  48   1.0000      -0.406504       -11.0615   24-B
  49   1.0000      -0.386631       -10.5208   26-A
  50   1.0000      -0.378951       -10.3118   27-A
  51   1.0000      -0.318908        -8.6779   28-A
  52   1.0000      -0.310146        -8.4395   29-A
  53   1.0000      -0.298822        -8.1314   25-B
  54   1.0000      -0.293814        -7.9951   26-B
  55   1.0000      -0.230700        -6.2777   30-A
  56   1.0000      -0.223271        -6.0755   31-A
  57   1.0000      -0.186915        -5.0862   32-A
  58   1.0000      -0.181710        -4.9446   27-B
  59   1.0000      -0.177832        -4.8390   28-B
  60   1.0000      -0.176463        -4.8018   33-A
  61   1.0000      -0.146876        -3.9967   29-B
  62   1.0000      -0.142516        -3.8781   30-B
  63   1.0000      -0.129263        -3.5174   34-A
  64   1.0000      -0.114243        -3.1087   31-B
  65   1.0000      -0.113701        -3.0940   35-A
  66   1.0000      -0.105699        -2.8762   32-B
  67   1.0000      -0.094323        -2.5667   36-A
  68   1.0000      -0.071165        -1.9365   37-A
  69   1.0000      -0.070939        -1.9303   33-B
  70   1.0000      -0.066837        -1.8187   34-B
  71   1.0000      -0.043444        -1.1822   35-B
  72   1.0000      -0.036041        -0.9807   36-B
  73   1.0000      -0.033498        -0.9115   38-A
  74   1.0000      -0.025140        -0.6841   37-B
  75   1.0000      -0.021695        -0.5904   39-A
  76   1.0000      -0.008134        -0.2213   40-A
  77   1.0000      -0.004711        -0.1282   41-A
  78   1.0000       0.000004         0.0001   38-B
  79   1.0000       0.006139         0.1670   42-A
  80   1.0000       0.017980         0.4893   43-A
  81   1.0000       0.021385         0.5819   44-A
  82   1.0000       0.033213         0.9038   39-B
  83   1.0000       0.049484         1.3465   45-A
  84   1.0000       0.051286         1.3956   46-A
  85   1.0000       0.060677         1.6511   40-B
  86   1.0000       0.085618         2.3298   41-B
  87   1.0000       0.103456         2.8152   42-B
  88   0.0000       0.181143         4.9292   47-A
  89   0.0000       0.181740         4.9454   48-A
  90   0.0000       0.185707         5.0533   43-B
  91   0.0000       0.189485         5.1561   49-A
  92   0.0000       0.196694         5.3523   44-B

                 SPIN DOWN ORBITALS
  NO   OCC          E(Eh)            E(eV)    Irrep
   0   1.0000    -318.182998     -8658.1995    1-A
   1   1.0000     -88.015808     -2395.0319    1-B
   2   1.0000     -88.015804     -2395.0318    2-A
   3   1.0000     -88.014936     -2395.0082    2-B
   4   1.0000     -88.014927     -2395.0079    3-A
   5   1.0000     -38.012588     -1034.3751    4-A
   6   1.0000     -33.516435      -912.0286    3-B
   7   1.0000     -33.515569      -912.0050    5-A
   8   1.0000     -33.512683      -911.9265    4-B
   9   1.0000      -9.839857      -267.7561    6-A
  10   1.0000      -9.839625      -267.7498    5-B
  11   1.0000      -9.835402      -267.6349    7-A
  12   1.0000      -9.835101      -267.6267    6-B
  13   1.0000      -9.826408      -267.3902    8-A
  14   1.0000      -9.826056      -267.3806    7-B
  15   1.0000      -9.825077      -267.3539    9-A
  16   1.0000      -9.824667      -267.3428    8-B
  17   1.0000      -9.824665      -267.3427   10-A
  18   1.0000      -9.824660      -267.3426    9-B
  19   1.0000      -9.819221      -267.1946   10-B
  20   1.0000      -9.819218      -267.1945   11-A
  21   1.0000      -7.584628      -206.3882   11-B
  22   1.0000      -7.584624      -206.3881   12-A
  23   1.0000      -7.583908      -206.3686   12-B
  24   1.0000      -7.583901      -206.3684   13-A
  25   1.0000      -5.507571      -149.8686   13-B
  26   1.0000      -5.507571      -149.8686   14-A
  27   1.0000      -5.506893      -149.8502   14-B
  28   1.0000      -5.506892      -149.8502   15-A
  29   1.0000      -5.501173      -149.6945   15-B
  30   1.0000      -5.501173      -149.6945   16-A
  31   1.0000      -5.500604      -149.6790   17-A
  32   1.0000      -5.500604      -149.6790   16-B
  33   1.0000      -5.500355      -149.6723   17-B
  34   1.0000      -5.500355      -149.6723   18-A
  35   1.0000      -5.499877      -149.6593   19-A
  36   1.0000      -5.499877      -149.6593   18-B
  37   1.0000      -3.992327      -108.6367   20-A
  38   1.0000      -2.506939       -68.2173   19-B
  39   1.0000      -2.505377       -68.1748   20-B
  40   1.0000      -2.503797       -68.1318   21-A
  41   1.0000      -0.588865       -16.0238   22-A
  42   1.0000      -0.585248       -15.9254   23-A
  43   1.0000      -0.502640       -13.6775   24-A
  44   1.0000      -0.498780       -13.5725   25-A
  45   1.0000      -0.488692       -13.2980   21-B
  46   1.0000      -0.485294       -13.2055   22-B
  47   1.0000      -0.405691       -11.0394   23-B
  48   1.0000      -0.402423       -10.9505   24-B
  49   1.0000      -0.383381       -10.4323   26-A
  50   1.0000      -0.375712       -10.2236   27-A
  51   1.0000      -0.317615        -8.6427   28-A
  52   1.0000      -0.308831        -8.4037   29-A
  53   1.0000      -0.296973        -8.0811   25-B
  54   1.0000      -0.291679        -7.9370   26-B
  55   1.0000      -0.230099        -6.2613   30-A
  56   1.0000      -0.222585        -6.0569   31-A
  57   1.0000      -0.185929        -5.0594   32-A
  58   1.0000      -0.181202        -4.9308   27-B
  59   1.0000      -0.177100        -4.8191   28-B
  60   1.0000      -0.175399        -4.7729   33-A
  61   1.0000      -0.146096        -3.9755   29-B
  62   1.0000      -0.140767        -3.8305   30-B
  63   1.0000      -0.128003        -3.4831   34-A
  64   1.0000      -0.114023        -3.1027   31-B
  65   1.0000      -0.112969        -3.0741   35-A
  66   1.0000      -0.105393        -2.8679   32-B
  67   1.0000      -0.093068        -2.5325   36-A
  68   1.0000      -0.069602        -1.8940   33-B
  69   1.0000      -0.069486        -1.8908   37-A
  70   1.0000      -0.055994        -1.5237   34-B
  71   1.0000      -0.035641        -0.9699   35-B
  72   1.0000      -0.029876        -0.8130   36-B
  73   1.0000      -0.027758        -0.7553   38-A
  74   1.0000      -0.015966        -0.4345   39-A
  75   1.0000      -0.004529        -0.1232   40-A
  76   1.0000      -0.003711        -0.1010   37-B
  77   1.0000       0.005925         0.1612   41-A
  78   1.0000       0.012040         0.3276   38-B
  79   1.0000       0.014772         0.4020   42-A
  80   1.0000       0.026584         0.7234   43-A
  81   1.0000       0.033025         0.8986   44-A
  82   1.0000       0.041487         1.1289   39-B
  83   1.0000       0.052132         1.4186   45-A
  84   1.0000       0.056473         1.5367   46-A
  85   1.0000       0.062587         1.7031   40-B
  86   1.0000       0.089808         2.4438   41-B
  87   0.0000       0.136223         3.7068   42-B
  88   0.0000       0.182222         4.9585   47-A
  89   0.0000       0.182666         4.9706   48-A
  90   0.0000       0.186003         5.0614   43-B
  91   0.0000       0.189969         5.1693   49-A

MULLIKEN ATOMIC CHARGES AND SPIN POPULATIONS
--------------------------------------------
   0 Cu:    0.141316    0.373674
   1 S :   -0.388877    0.162145
   2 C :   -0.015441   -0.006385
   3 S :   -0.412132    0.163618
   4 C :    0.010619   -0.007228
   5 S :   -0.388877    0.162145
   6 C :   -0.015441   -0.006385
   7 S :   -0.412132    0.163618
   8 C :    0.010619   -0.007228
   9 C :   -0.076586   -0.001553
  10 C :   -0.076586   -0.001553
  11 C :   -0.147703   -0.000959
  12 H :    0.056222    0.001969
  13 C :   -0.147703   -0.000959
  14 H :    0.056222    0.001969
  15 H :    0.035774    0.001084
  16 H :    0.035774    0.001084
  17 C :   -0.041977   -0.001150
  18 C :   -0.041977   -0.001150
  19 C :   -0.168410   -0.001207
  20 H :    0.035184    0.001793
  21 C :   -0.168410   -0.001207
  22 H :    0.035184    0.001793
  23 H :    0.042668    0.001035
  24 H :    0.042668    0.001035
Sum of atomic charges         :   -2.0000000

LOEWDIN ATOMIC CHARGES AND SPIN POPULATIONS
-------------------------------------------
   0 Cu:   -0.896649    0.440591
   1 S :   -0.004151    0.123986
   2 C :   -0.025799    0.005587
   3 S :    0.005483    0.124731
   4 C :   -0.034701    0.005267
   5 S :   -0.004151    0.123986
   6 C :   -0.025799    0.005587
   7 S :    0.005483    0.124731
   8 C :   -0.034701    0.005267
   9 C :    0.303041    0.003938
  10 C :    0.303041    0.003938
  11 C :    0.310290   -0.000200
  12 H :   -0.438787    0.006223
  13 C :    0.310290   -0.000200
  14 H :   -0.438787    0.006223
  15 H :   -0.420817    0.000189
  16 H :   -0.420817    0.000189
  17 C :    0.293786    0.004165
  18 C :    0.293786    0.004165
  19 C :    0.305897   -0.000415
  20 H :   -0.416826    0.006101
  21 C :    0.305897   -0.000415
  22 H :   -0.416826    0.006101
  23 H :   -0.429090    0.000132
  24 H :   -0.429090    0.000132

  Mayer bond orders larger than 0.100000
B(  0-Cu,  1-S ) :   0.7001 B(  0-Cu,  3-S ) :   0.7018 B(  0-Cu,  5-S ) :   0.7001
B(  0-Cu,  7-S ) :   0.7018 B(  1-S ,  2-C ) :   1.1907 B(  2-C ,  6-C ) :   1.2442
B(  2-C , 17-C ) :   1.2995 B(  3-S ,  4-C ) :   1.1864 B(  4-C ,  8-C ) :   1.2488
B(  4-C , 10-C ) :   1.3128 B(  5-S ,  6-C ) :   1.1907 B(  6-C , 18-C ) :   1.2995
B(  7-S ,  8-C ) :   1.1864 B(  8-C ,  9-C ) :   1.3128 B(  9-C , 13-C ) :   1.3633
B(  9-C , 14-H ) :   0.9746 B( 10-C , 11-C ) :   1.3633 B( 10-C , 12-H ) :   0.9746
B( 11-C , 13-C ) :   1.3436 B( 11-C , 15-H ) :   0.9855 B( 13-C , 16-H ) :   0.9855
B( 17-C , 19-C ) :   1.3649 B( 17-C , 20-H ) :   0.9845 B( 18-C , 21-C ) :   1.3649
B( 18-C , 22-H ) :   0.9845 B( 19-C , 21-C ) :   1.3428 B( 19-C , 23-H ) :   0.9821
B( 21-C , 24-H ) :   0.9821

FINAL SINGLE POINT ENERGY     -3686.865360713642

DIPOLE MOMENT
-------------
                                X             Y             Z
Electronic contribution:      0.00000      -0.00000      -0.13978
Nuclear contribution   :     -0.00000      -0.00000       0.00000
                        -----------------------------------------
Total Dipole Moment    :      0.00000      -0.00000      -0.13977
                        -----------------------------------------
Magnitude (a.u.)       :      0.13977
Magnitude (Debye)      :      0.35528

Rotational constants in cm-1:     0.033308     0.004802     0.004200
Rotational constants in MHz :   998.545633   143.946892   125.919615

                             ****ORCA TERMINATED NORMALLY****
TOTAL RUN TIME: 0 days 7 hours 8 minutes 39 seconds 836 msec
