                         Program Version 5.0.4 -  RELEASE  -
|  1> ! RIJCOSX nofrozencore ReducedPop printbasis
|  2> ! M06L ano-rcc-dzp autoaux
|  3>
|  4> %maxcore 5000
|  5> %basis
|  6> PCDTrimBas overlap
|  7> PCDTrimAuxJ Coulomb
|  8> PCDTrimAuxJK Coulomb
|  9> PCDTrimAuxC Coulomb
| 10> PCDThresh -1
| 11> end
| 12>
| 13> %basis
| 14> newgto Cu "ano-rcc-tzp" end
| 15> newgto S "ano-rcc-tzp" end
| 16> end
| 17>
| 18> %pal
| 19> nprocs 4
| 20> end
| 21>
| 22> % sym SymThresh 1e-2 end
| 23> * xyz -2 2
| 24> Cu 9.637208604728242e-05 -8.096319385911968e-05 -0.00028418019331231687
| 25> S 1.2245793573573491 1.763566268709264 0.8675408536692353
| 26> C 0.528802761184231 2.0568254202092846 2.452075166991998
| 27> S 1.2623267577779433 0.05593731852818107 -1.9317173045916172
| 28> C 0.6039286844416734 -1.2812813249626451 -3.0221101884172787
| 29> S -1.2454513242612224 -0.02661884997890194 1.951716692345938
| 30> C -0.5672007523141754 1.2628622520199921 2.933753968729182
| 31> S -1.243070245769878 -1.7583338521211973 -0.829538270778538
| 32> C -0.560558923721923 -2.1260978917382065 -2.512326164387513
| 33> C -1.1744883644109723 -3.1964623941247874 -3.245930342597369
| 34> C 1.2310697624709321 -1.4526557516502125 -4.301247674732102
| 35> C 0.5720353782021615 -2.516875707268638 -4.952767781236881
| 36> H 2.059231319219998 -0.8678494618747729 -4.689476389460995
| 37> C -0.5060165973844991 -3.3001817997673784 -4.482743224963433
| 38> H -2.0023133808052456 -3.807988584219487 -2.90109821469876
| 39> H 0.8781916915944213 -2.8417134894945777 -5.964027147124088
| 40> H -0.797829891065435 -4.058834898276426 -5.2322233575491515
| 41> C 1.0427609975082537 3.078871135797809 3.2682717930416527
| 42> C -1.0967711181425845 1.5285199735852597 4.207864044117535
| 43> C 0.49731118225892706 3.317988127191571 4.525242681750008
| 44> H 1.8707963173494422 3.676253052626317 2.900414872305073
| 45> C -0.5671915460334856 2.5465841851671565 4.992659558433128
| 46> H -1.9246828436303087 0.9251588179337668 4.56593561475647
| 47> H 0.8991615459117404 4.10986682432569 5.151808816707263
| 48> H -0.9811090040964124 2.7472332604347107 5.977305461706991
| 49> *
| 50>
| 51> % eprnmr
| 52> gtensor true
| 53> Nuclei = all H {aiso,adip,aorb,fgrad,rho}
| 54> Nuclei = all Cu {aiso,adip,aorb,fgrad,rho}
| 55> end
| 56>
| 57>                          ****END OF INPUT****

CARTESIAN COORDINATES (ANGSTROEM)
---------------------------------
  Cu     0.000000    0.000000   -0.000285
  S      1.618738    0.000000    1.655720
  C      0.718264    0.000000    3.163422
  S      1.641903    0.000000   -1.621963
  C      0.763155    0.000000   -3.249695
  S     -1.618738    0.000000    1.655720
  C     -0.718264    0.000000    3.163422
  S     -1.641903    0.000000   -1.621963
  C     -0.763155    0.000000   -3.249695
  C     -1.576489    0.000000   -4.432194
  C      1.576489    0.000000   -4.432194
  C      0.706518    0.000000   -5.542368
  H      2.661711    0.000000   -4.457676
  C     -0.706518    0.000000   -5.542368
  H     -2.661711    0.000000   -4.457676
  H      1.098402    0.000000   -6.576094
  H     -1.098402    0.000000   -6.576094
  C      1.402143    0.000000    4.391002
  C     -1.402143    0.000000    4.391002
  C      0.697623    0.000000    5.589914
  H      2.487375    0.000000    4.385268
  C     -0.697623    0.000000    5.589914
  H     -2.487375    0.000000    4.385268
  H      1.232237    0.000000    6.536125
  H     -1.232237    0.000000    6.536125

 Total Charge           Charge          ....   -2
 Multiplicity           Mult            ....    2
 Number of Electrons    NEL             ....  175
 Basis Dimension        Dim             ....  475

ORBITAL ENERGIES
----------------
                 SPIN UP ORBITALS
  NO   OCC          E(Eh)            E(eV)    Irrep
   0   1.0000    -318.179861     -8658.1142    1-A1
   1   1.0000     -88.017737     -2395.0844    1-B1
   2   1.0000     -88.017730     -2395.0842    2-A1
   3   1.0000     -88.013476     -2394.9684    2-B1
   4   1.0000     -88.013466     -2394.9682    3-A1
   5   1.0000     -38.025129     -1034.7164    4-A1
   6   1.0000     -33.528260      -912.3503    3-B1
   7   1.0000     -33.527401      -912.3270    5-A1
   8   1.0000     -33.513593      -911.9512    1-B2
   9   1.0000      -9.858622      -268.2668    6-A1
  10   1.0000      -9.858497      -268.2634    4-B1
  11   1.0000      -9.837475      -267.6913    5-B1
  12   1.0000      -9.837470      -267.6912    7-A1
  13   1.0000      -9.834428      -267.6084    8-A1
  14   1.0000      -9.834389      -267.6073    9-A1
  15   1.0000      -9.834135      -267.6004    6-B1
  16   1.0000      -9.834033      -267.5977    7-B1
  17   1.0000      -9.823531      -267.3119   10-A1
  18   1.0000      -9.823110      -267.3004    8-B1
  19   1.0000      -9.817612      -267.1508    9-B1
  20   1.0000      -9.817607      -267.1507   11-A1
  21   1.0000      -7.584263      -206.3783   10-B1
  22   1.0000      -7.584259      -206.3782   12-A1
  23   1.0000      -7.581862      -206.3129   11-B1
  24   1.0000      -7.581853      -206.3127   13-A1
  25   1.0000      -5.508117      -149.8835   12-B1
  26   1.0000      -5.508117      -149.8835   14-A1
  27   1.0000      -5.505169      -149.8033   13-B1
  28   1.0000      -5.505169      -149.8033   15-A1
  29   1.0000      -5.502186      -149.7221   14-B1
  30   1.0000      -5.502186      -149.7221   16-A1
  31   1.0000      -5.500210      -149.6683    1-A2
  32   1.0000      -5.500210      -149.6683    2-B2
  33   1.0000      -5.499754      -149.6559   15-B1
  34   1.0000      -5.499754      -149.6559   17-A1
  35   1.0000      -5.497916      -149.6059    2-A2
  36   1.0000      -5.497916      -149.6059    3-B2
  37   1.0000      -4.022686      -109.4629   18-A1
  38   1.0000      -2.544231       -69.2320   16-B1
  39   1.0000      -2.542516       -69.1854   19-A1
  40   1.0000      -2.515095       -68.4392    4-B2
  41   1.0000      -0.586754       -15.9664   20-A1
  42   1.0000      -0.580184       -15.7876   21-A1
  43   1.0000      -0.499800       -13.6003   22-A1
  44   1.0000      -0.497278       -13.5316   17-B1
  45   1.0000      -0.489655       -13.3242   18-B1
  46   1.0000      -0.478929       -13.0323   23-A1
  47   1.0000      -0.405947       -11.0464   19-B1
  48   1.0000      -0.393529       -10.7085   20-B1
  49   1.0000      -0.384539       -10.4638   24-A1
  50   1.0000      -0.376851       -10.2546   25-A1
  51   1.0000      -0.324863        -8.8400   26-A1
  52   1.0000      -0.319131        -8.6840   27-A1
  53   1.0000      -0.297459        -8.0943   21-B1
  54   1.0000      -0.289945        -7.8898   22-B1
  55   1.0000      -0.230395        -6.2694   28-A1
  56   1.0000      -0.223074        -6.0701   29-A1
  57   1.0000      -0.214213        -5.8290   23-B1
  58   1.0000      -0.187802        -5.1104   30-A1
  59   1.0000      -0.181090        -4.9277   31-A1
  60   1.0000      -0.178999        -4.8708   24-B1
  61   1.0000      -0.146686        -3.9915   25-B1
  62   1.0000      -0.140067        -3.8114   26-B1
  63   1.0000      -0.121945        -3.3183   32-A1
  64   1.0000      -0.118015        -3.2114   33-A1
  65   1.0000      -0.114767        -3.1230    5-B2
  66   1.0000      -0.110395        -3.0040    6-B2
  67   1.0000      -0.090430        -2.4607   34-A1
  68   1.0000      -0.065136        -1.7724   27-B1
  69   1.0000      -0.058860        -1.6017   35-A1
  70   1.0000      -0.055094        -1.4992   28-B1
  71   1.0000      -0.035430        -0.9641    7-B2
  72   1.0000      -0.029383        -0.7995   36-A1
  73   1.0000      -0.028451        -0.7742    3-A2
  74   1.0000      -0.025169        -0.6849    8-B2
  75   1.0000      -0.025139        -0.6841   29-B1
  76   1.0000      -0.021696        -0.5904    4-A2
  77   1.0000      -0.004196        -0.1142    5-A2
  78   1.0000       0.000656         0.0179   37-A1
  79   1.0000       0.004478         0.1218    9-B2
  80   1.0000       0.018642         0.5073   38-A1
  81   1.0000       0.020226         0.5504   39-A1
  82   1.0000       0.036048         0.9809   30-B1
  83   1.0000       0.051700         1.4068    6-A2
  84   1.0000       0.053761         1.4629    7-A2
  85   1.0000       0.062592         1.7032   10-B2
  86   1.0000       0.088192         2.3998   11-B2
  87   1.0000       0.107955         2.9376   31-B1
  88   0.0000       0.180444         4.9101   40-A1
  89   0.0000       0.181893         4.9496   41-A1
  90   0.0000       0.182550         4.9674   12-B2
  91   0.0000       0.195838         5.3290   32-B1
  92   0.0000       0.197343         5.3700   33-B1

                 SPIN DOWN ORBITALS
  NO   OCC          E(Eh)            E(eV)    Irrep
   0   1.0000    -318.179687     -8658.1094    1-A1
   1   1.0000     -88.016662     -2395.0551    1-B1
   2   1.0000     -88.016656     -2395.0550    2-A1
   3   1.0000     -88.012403     -2394.9393    2-B1
   4   1.0000     -88.012393     -2394.9390    3-A1
   5   1.0000     -38.009275     -1034.2850    4-A1
   6   1.0000     -33.513113      -911.9382    3-B1
   7   1.0000     -33.512291      -911.9158    5-A1
   8   1.0000     -33.509268      -911.8336    1-B2
   9   1.0000      -9.858744      -268.2701    6-A1
  10   1.0000      -9.858619      -268.2667    4-B1
  11   1.0000      -9.837449      -267.6906    5-B1
  12   1.0000      -9.837444      -267.6905    7-A1
  13   1.0000      -9.834543      -267.6115    8-A1
  14   1.0000      -9.834371      -267.6068    9-A1
  15   1.0000      -9.834249      -267.6035    6-B1
  16   1.0000      -9.834015      -267.5972    7-B1
  17   1.0000      -9.823509      -267.3113   10-A1
  18   1.0000      -9.823088      -267.2998    8-B1
  19   1.0000      -9.817556      -267.1493    9-B1
  20   1.0000      -9.817552      -267.1492   11-A1
  21   1.0000      -7.583521      -206.3581   10-B1
  22   1.0000      -7.583517      -206.3580   12-A1
  23   1.0000      -7.581126      -206.2929   11-B1
  24   1.0000      -7.581117      -206.2927   13-A1
  25   1.0000      -5.507203      -149.8586   12-B1
  26   1.0000      -5.507202      -149.8586   14-A1
  27   1.0000      -5.504239      -149.7779   13-B1
  28   1.0000      -5.504238      -149.7779   15-A1
  29   1.0000      -5.499903      -149.6600   14-B1
  30   1.0000      -5.499903      -149.6600   16-A1
  31   1.0000      -5.499381      -149.6458    1-A2
  32   1.0000      -5.499380      -149.6457    2-B2
  33   1.0000      -5.497504      -149.5947   15-B1
  34   1.0000      -5.497503      -149.5947   17-A1
  35   1.0000      -5.497097      -149.5836    2-A2
  36   1.0000      -5.497096      -149.5836    3-B2
  37   1.0000      -3.989078      -108.5483   18-A1
  38   1.0000      -2.503398       -68.1209    4-B2
  39   1.0000      -2.502311       -68.0913   16-B1
  40   1.0000      -2.500591       -68.0445   19-A1
  41   1.0000      -0.586417       -15.9572   20-A1
  42   1.0000      -0.579981       -15.7821   21-A1
  43   1.0000      -0.498492       -13.5647   22-A1
  44   1.0000      -0.496759       -13.5175   17-B1
  45   1.0000      -0.488713       -13.2986   18-B1
  46   1.0000      -0.477584       -12.9957   23-A1
  47   1.0000      -0.401812       -10.9339   19-B1
  48   1.0000      -0.388712       -10.5774   20-B1
  49   1.0000      -0.381411       -10.3787   24-A1
  50   1.0000      -0.374002       -10.1771   25-A1
  51   1.0000      -0.323310        -8.7977   26-A1
  52   1.0000      -0.317502        -8.6397   27-A1
  53   1.0000      -0.295578        -8.0431   21-B1
  54   1.0000      -0.287911        -7.8345   22-B1
  55   1.0000      -0.229798        -6.2531   28-A1
  56   1.0000      -0.222290        -6.0488   29-A1
  57   1.0000      -0.213936        -5.8215   23-B1
  58   1.0000      -0.186878        -5.0852   30-A1
  59   1.0000      -0.180362        -4.9079   31-A1
  60   1.0000      -0.178415        -4.8549   24-B1
  61   1.0000      -0.145834        -3.9683   25-B1
  62   1.0000      -0.138152        -3.7593   26-B1
  63   1.0000      -0.120906        -3.2900   32-A1
  64   1.0000      -0.117633        -3.2010   33-A1
  65   1.0000      -0.114612        -3.1188    5-B2
  66   1.0000      -0.110403        -3.0042    6-B2
  67   1.0000      -0.088753        -2.4151   34-A1
  68   1.0000      -0.061009        -1.6601   27-B1
  69   1.0000      -0.056874        -1.5476   35-A1
  70   1.0000      -0.038869        -1.0577   28-B1
  71   1.0000      -0.033835        -0.9207    7-B2
  72   1.0000      -0.027144        -0.7386    3-A2
  73   1.0000      -0.023158        -0.6302    8-B2
  74   1.0000      -0.022622        -0.6156   36-A1
  75   1.0000      -0.020223        -0.5503    4-A2
  76   1.0000      -0.000891        -0.0242   29-B1
  77   1.0000       0.005837         0.1588    5-A2
  78   1.0000       0.011211         0.3051   37-A1
  79   1.0000       0.016059         0.4370    9-B2
  80   1.0000       0.026343         0.7168   38-A1
  81   1.0000       0.035573         0.9680   39-A1
  82   1.0000       0.044156         1.2016   30-B1
  83   1.0000       0.054765         1.4902    6-A2
  84   1.0000       0.059780         1.6267    7-A2
  85   1.0000       0.064401         1.7524   10-B2
  86   1.0000       0.092398         2.5143   11-B2
  87   0.0000       0.140772         3.8306   31-B1
  88   0.0000       0.181613         4.9420   40-A1
  89   0.0000       0.182462         4.9651   12-B2
  90   0.0000       0.183136         4.9834   41-A1
  91   0.0000       0.197222         5.3667   32-B1

MULLIKEN ATOMIC CHARGES AND SPIN POPULATIONS
--------------------------------------------
   0 Cu:    0.150326    0.374652
   1 S :   -0.421609    0.163228
   2 C :    0.018935   -0.007572
   3 S :   -0.411107    0.165685
   4 C :    0.013036   -0.009035
   5 S :   -0.421609    0.163228
   6 C :    0.018935   -0.007572
   7 S :   -0.411107    0.165685
   8 C :    0.013036   -0.009035
   9 C :   -0.127905   -0.002253
  10 C :   -0.127905   -0.002253
  11 C :   -0.081310   -0.000655
  12 H :    0.031056    0.001603
  13 C :   -0.081310   -0.000655
  14 H :    0.031056    0.001603
  15 H :    0.037820    0.001084
  16 H :    0.037820    0.001084
  17 C :   -0.095402   -0.001726
  18 C :   -0.095402   -0.001726
  19 C :   -0.132322   -0.000867
  20 H :    0.059900    0.002060
  21 C :   -0.132322   -0.000867
  22 H :    0.059900    0.002060
  23 H :    0.033744    0.001120
  24 H :    0.033744    0.001120
Sum of atomic charges         :   -2.0000000

LOEWDIN ATOMIC CHARGES AND SPIN POPULATIONS
-------------------------------------------
   0 Cu:   -0.934292    0.441755
   1 S :   -0.003126    0.124767
   2 C :   -0.028368    0.004929
   3 S :   -0.043100    0.128273
   4 C :    0.026370    0.002702
   5 S :   -0.003126    0.124767
   6 C :   -0.028368    0.004929
   7 S :   -0.043100    0.128273
   8 C :    0.026370    0.002702
   9 C :    0.310047    0.003148
  10 C :    0.310047    0.003148
  11 C :    0.299954   -0.000186
  12 H :   -0.417264    0.004996
  13 C :    0.299954   -0.000186
  14 H :   -0.417264    0.004996
  15 H :   -0.430228    0.000365
  16 H :   -0.430228    0.000365
  17 C :    0.305601    0.003865
  18 C :    0.305601    0.003865
  19 C :    0.311021   -0.000126
  20 H :   -0.442948    0.006155
  21 C :    0.311021   -0.000126
  22 H :   -0.442948    0.006155
  23 H :   -0.420813    0.000234
  24 H :   -0.420813    0.000234

  Mayer bond orders larger than 0.100000
B(  0-Cu,  1-S ) :   0.6977 B(  0-Cu,  3-S ) :   0.7076 B(  0-Cu,  5-S ) :   0.6977
B(  0-Cu,  7-S ) :   0.7076 B(  1-S ,  2-C ) :   1.1769 B(  2-C ,  6-C ) :   1.2453
B(  2-C , 17-C ) :   1.3225 B(  3-S ,  4-C ) :   1.1268 B(  4-C ,  8-C ) :   1.2352
B(  4-C , 10-C ) :   1.3477 B(  5-S ,  6-C ) :   1.1769 B(  6-C , 18-C ) :   1.3225
B(  7-S ,  8-C ) :   1.1268 B(  8-C ,  9-C ) :   1.3477 B(  9-C , 13-C ) :   1.3264
B(  9-C , 14-H ) :   0.9984 B( 10-C , 11-C ) :   1.3264 B( 10-C , 12-H ) :   0.9984
B( 11-C , 13-C ) :   1.3474 B( 11-C , 15-H ) :   0.9824 B( 13-C , 16-H ) :   0.9824
B( 17-C , 19-C ) :   1.3594 B( 17-C , 20-H ) :   0.9733 B( 18-C , 21-C ) :   1.3594
B( 18-C , 22-H ) :   0.9733 B( 19-C , 21-C ) :   1.3412 B( 19-C , 23-H ) :   0.9866
B( 21-C , 24-H ) :   0.9866

FINAL SINGLE POINT ENERGY     -3686.880450662392

DIPOLE MOMENT
-------------
                                X             Y             Z
Electronic contribution:     -0.00000      -0.00000       0.08487
Nuclear contribution   :      0.00000       0.00000      -0.21134
                        -----------------------------------------
Total Dipole Moment    :     -0.00000      -0.00000      -0.12647
                        -----------------------------------------
Magnitude (a.u.)       :      0.12647
Magnitude (Debye)      :      0.32145

Rotational constants in cm-1:     0.031800     0.004797     0.004168
Rotational constants in MHz :   953.336502   143.808088   124.958461

                             ****ORCA TERMINATED NORMALLY****
TOTAL RUN TIME: 0 days 5 hours 27 minutes 43 seconds 671 msec
