                         Program Version 5.0.4 -  RELEASE  -
|  1> ! RIJCOSX nofrozencore ReducedPop printbasis
|  2> ! M06L ano-rcc-dzp autoaux
|  3>
|  4> %maxcore 5000
|  5> %basis
|  6> PCDTrimBas overlap
|  7> PCDTrimAuxJ Coulomb
|  8> PCDTrimAuxJK Coulomb
|  9> PCDTrimAuxC Coulomb
| 10> PCDThresh -1
| 11> end
| 12>
| 13> %basis
| 14> newgto Cu "ano-rcc-tzp" end
| 15> newgto S "ano-rcc-tzp" end
| 16> end
| 17>
| 18> %pal
| 19> nprocs 12
| 20> end
| 21>
| 22> % sym SymThresh 1e-2 end
| 23> * xyz -2 2
| 24> Cu -2.0263531859771703e-06 -9.414035229629009e-07 -8.747669765835454e-08
| 25> S 1.4614475371157052 -1.6753910968334735 -0.6711477872939542
| 26> C 1.2306177570975643 -1.7834740077812887 -2.3973069902077015
| 27> S 0.8547573984381077 -0.01616829901992518 2.159243788931699
| 28> C -0.21021540061624522 1.0382662871083883 3.0528828073248917
| 29> S -0.8547615024286221 0.0161623013173231 -2.159244218844893
| 30> C 0.21021736490467707 -1.038264089740942 -3.0528833669205158
| 31> S -1.4614434951899449 1.6753983504999987 0.6711475701348263
| 32> C -1.2306171023347539 1.783474740237104 2.3973068036758267
| 33> C -2.05609343218806 2.610996073113705 3.17602953411141
| 34> C -0.08042776022328516 1.1681652821289015 4.445322543942922
| 35> C -0.911218072459471 1.9938169005534876 5.196908457835248
| 36> H 0.6973360837510671 0.5925781411282006 4.936807937033987
| 37> C -1.9096481062971278 2.7229755387762853 4.555450420648082
| 38> H -2.8341292588125264 3.17162424678947 2.6679632390240853
| 39> H -0.7812944736547652 2.0614090528444255 6.275166026559582
| 40> H -2.574447846990586 3.3709509976496954 5.123129518549093
| 41> C 2.0560900428289357 -2.6110018120646816 -3.1760264394892337
| 42> C 0.08043515100463931 -1.1681617752664353 -4.445325718571502
| 43> C 1.9096495399522573 -2.722976585792501 -4.555449499567188
| 44> H 2.8341236654903903 -3.171631747851946 -2.6679587169881267
| 45> C 0.9112221251658429 -1.9938150177464415 -5.196908282881853
| 46> H -0.6973280382069024 -0.5925739018099188 -4.936811298194441
| 47> H 2.5744460688964166 -3.3709569629089113 -5.123127017736503
| 48> H 0.7813016868262939 -2.0614063666899356 -6.2751676862976815
| 49> *
| 50>
| 51> % eprnmr
| 52> gtensor true
| 53> Nuclei = all H {aiso,adip,aorb,fgrad,rho}
| 54> Nuclei = all Cu {aiso,adip,aorb,fgrad,rho}
| 55> end
| 56>
| 57>                          ****END OF INPUT****

CARTESIAN COORDINATES (ANGSTROEM)
---------------------------------
  Cu     0.000000    0.000000    0.000000
  S     -0.742128   -1.494089    1.615597
  C     -1.200968   -2.914339    0.711747
  S      0.742128    1.494089    1.615597
  C      1.200968    2.914339    0.711747
  S     -0.742128   -1.494089   -1.615597
  C     -1.200968   -2.914339   -0.711747
  S      0.742128    1.494089   -1.615597
  C      1.200968    2.914339   -0.711747
  C      1.577561    4.091974   -1.378053
  C      1.577561    4.091974    1.378053
  C      1.945914    5.248038    0.696420
  H      1.570012    4.083745    2.463249
  C      1.945914    5.248038   -0.696420
  H      1.570012    4.083745   -2.463249
  H      2.225146    6.141816    1.250749
  H      2.225146    6.141816   -1.250749
  C     -1.577561   -4.091974    1.378053
  C     -1.577561   -4.091974   -1.378053
  C     -1.945914   -5.248038    0.696420
  H     -1.570012   -4.083745    2.463249
  C     -1.945914   -5.248038   -0.696420
  H     -1.570012   -4.083745   -2.463249
  H     -2.225146   -6.141816    1.250749
  H     -2.225146   -6.141816   -1.250749

 Total Charge           Charge          ....   -2
 Multiplicity           Mult            ....    2
 Number of Electrons    NEL             ....  175
 Basis Dimension        Dim             ....  475

ORBITAL ENERGIES
----------------
                 SPIN UP ORBITALS
  NO   OCC          E(Eh)            E(eV)    Irrep
   0   1.0000    -318.181443     -8658.1572    1-Ag
   1   1.0000     -88.014711     -2395.0021    1-Bu
   2   1.0000     -88.014700     -2395.0017    1-Bg
   3   1.0000     -88.014697     -2395.0017    1-Au
   4   1.0000     -88.014663     -2395.0007    2-Ag
   5   1.0000     -38.026590     -1034.7561    3-Ag
   6   1.0000     -33.529725      -912.3902    2-Au
   7   1.0000     -33.528926      -912.3685    2-Bu
   8   1.0000     -33.515158      -911.9938    3-Bu
   9   1.0000      -9.833158      -267.5738    4-Bu
  10   1.0000      -9.833153      -267.5737    4-Ag
  11   1.0000      -9.832827      -267.5648    2-Bg
  12   1.0000      -9.832824      -267.5648    3-Au
  13   1.0000      -9.824461      -267.3372    5-Bu
  14   1.0000      -9.824461      -267.3372    5-Ag
  15   1.0000      -9.824030      -267.3255    3-Bg
  16   1.0000      -9.824030      -267.3255    4-Au
  17   1.0000      -9.817060      -267.1358    4-Bg
  18   1.0000      -9.817060      -267.1358    5-Au
  19   1.0000      -9.817056      -267.1357    6-Bu
  20   1.0000      -9.817055      -267.1357    6-Ag
  21   1.0000      -7.583311      -206.3524    5-Bg
  22   1.0000      -7.583311      -206.3524    6-Au
  23   1.0000      -7.583306      -206.3523    7-Bu
  24   1.0000      -7.583295      -206.3520    7-Ag
  25   1.0000      -5.506533      -149.8404    6-Bg
  26   1.0000      -5.506533      -149.8404    7-Au
  27   1.0000      -5.506532      -149.8404    8-Bu
  28   1.0000      -5.506532      -149.8404    8-Ag
  29   1.0000      -5.501238      -149.6963    7-Bg
  30   1.0000      -5.501238      -149.6963    8-Au
  31   1.0000      -5.501238      -149.6963    9-Bu
  32   1.0000      -5.501237      -149.6963    9-Ag
  33   1.0000      -5.499349      -149.6449    9-Au
  34   1.0000      -5.499349      -149.6449    8-Bg
  35   1.0000      -5.499348      -149.6449   10-Ag
  36   1.0000      -5.499348      -149.6449   10-Bu
  37   1.0000      -4.024281      -109.5063   11-Ag
  38   1.0000      -2.545663       -69.2710   10-Au
  39   1.0000      -2.544222       -69.2318   11-Bu
  40   1.0000      -2.516816       -68.4861   12-Bu
  41   1.0000      -0.588916       -16.0252   12-Ag
  42   1.0000      -0.588800       -16.0221   13-Bu
  43   1.0000      -0.504484       -13.7277   13-Ag
  44   1.0000      -0.503415       -13.6986   14-Bu
  45   1.0000      -0.489311       -13.3148   11-Au
  46   1.0000      -0.489066       -13.3082    9-Bg
  47   1.0000      -0.409297       -11.1375   12-Au
  48   1.0000      -0.406753       -11.0683   10-Bg
  49   1.0000      -0.387857       -10.5541   14-Ag
  50   1.0000      -0.381395       -10.3783   15-Bu
  51   1.0000      -0.322060        -8.7637   15-Ag
  52   1.0000      -0.319420        -8.6919   16-Bu
  53   1.0000      -0.299815        -8.1584   13-Au
  54   1.0000      -0.296435        -8.0664   11-Bg
  55   1.0000      -0.232882        -6.3370   16-Ag
  56   1.0000      -0.227820        -6.1993   17-Bu
  57   1.0000      -0.189683        -5.1615   17-Ag
  58   1.0000      -0.188850        -5.1389   18-Bu
  59   1.0000      -0.177517        -4.8305   14-Au
  60   1.0000      -0.174620        -4.7516   12-Bg
  61   1.0000      -0.146291        -3.9808   15-Au
  62   1.0000      -0.143471        -3.9040   13-Bg
  63   1.0000      -0.131014        -3.5651   18-Ag
  64   1.0000      -0.116680        -3.1750   19-Bu
  65   1.0000      -0.116581        -3.1723   19-Ag
  66   1.0000      -0.113960        -3.1010   20-Bu
  67   1.0000      -0.086524        -2.3544   20-Ag
  68   1.0000      -0.069412        -1.8888   16-Au
  69   1.0000      -0.065325        -1.7776   14-Bg
  70   1.0000      -0.062493        -1.7005   21-Bu
  71   1.0000      -0.039288        -1.0691   21-Ag
  72   1.0000      -0.037332        -1.0159   22-Bu
  73   1.0000      -0.032785        -0.8921   15-Bg
  74   1.0000      -0.028885        -0.7860   22-Ag
  75   1.0000      -0.024553        -0.6681   16-Bg
  76   1.0000      -0.019088        -0.5194   17-Au
  77   1.0000      -0.002640        -0.0718   17-Bg
  78   1.0000      -0.000799        -0.0217   23-Ag
  79   1.0000       0.001405         0.0382   24-Ag
  80   1.0000       0.018289         0.4977   25-Ag
  81   1.0000       0.018768         0.5107   23-Bu
  82   1.0000       0.034242         0.9318   18-Au
  83   1.0000       0.050681         1.3791   19-Au
  84   1.0000       0.052484         1.4282   18-Bg
  85   1.0000       0.063010         1.7146   24-Bu
  86   1.0000       0.086614         2.3569   26-Ag
  87   1.0000       0.104124         2.8334   19-Bg
  88   0.0000       0.181325         4.9341   27-Ag
  89   0.0000       0.181437         4.9371   25-Bu
  90   0.0000       0.196815         5.3556   20-Bg
  91   0.0000       0.196961         5.3596   20-Au
  92   0.0000       0.200354         5.4519   26-Bu

                 SPIN DOWN ORBITALS
  NO   OCC          E(Eh)            E(eV)    Irrep
   0   1.0000    -318.181269     -8658.1525    1-Ag
   1   1.0000     -88.013647     -2394.9731    1-Bu
   2   1.0000     -88.013636     -2394.9728    1-Bg
   3   1.0000     -88.013633     -2394.9727    1-Au
   4   1.0000     -88.013599     -2394.9718    2-Ag
   5   1.0000     -38.010728     -1034.3245    3-Ag
   6   1.0000     -33.514573      -911.9779    2-Au
   7   1.0000     -33.513813      -911.9572    2-Bu
   8   1.0000     -33.510828      -911.8760    3-Bu
   9   1.0000      -9.833271      -267.5769    4-Bu
  10   1.0000      -9.833266      -267.5768    4-Ag
  11   1.0000      -9.832939      -267.5679    2-Bg
  12   1.0000      -9.832937      -267.5678    3-Au
  13   1.0000      -9.824437      -267.3365    5-Bu
  14   1.0000      -9.824437      -267.3365    5-Ag
  15   1.0000      -9.824006      -267.3248    3-Bg
  16   1.0000      -9.824006      -267.3248    4-Au
  17   1.0000      -9.817003      -267.1342    4-Bg
  18   1.0000      -9.817003      -267.1342    5-Au
  19   1.0000      -9.816999      -267.1341    6-Bu
  20   1.0000      -9.816998      -267.1341    6-Ag
  21   1.0000      -7.582583      -206.3326    6-Au
  22   1.0000      -7.582583      -206.3326    5-Bg
  23   1.0000      -7.582580      -206.3325    7-Bu
  24   1.0000      -7.582568      -206.3322    7-Ag
  25   1.0000      -5.505610      -149.8153    6-Bg
  26   1.0000      -5.505610      -149.8153    7-Au
  27   1.0000      -5.505610      -149.8153    8-Bu
  28   1.0000      -5.505609      -149.8153    8-Ag
  29   1.0000      -5.499043      -149.6366    7-Bg
  30   1.0000      -5.499043      -149.6366    8-Au
  31   1.0000      -5.499043      -149.6366    9-Bu
  32   1.0000      -5.499042      -149.6365    9-Ag
  33   1.0000      -5.498502      -149.6218    9-Au
  34   1.0000      -5.498502      -149.6218    8-Bg
  35   1.0000      -5.498502      -149.6218   10-Ag
  36   1.0000      -5.498502      -149.6218   10-Bu
  37   1.0000      -3.990512      -108.5874   11-Ag
  38   1.0000      -2.505157       -68.1688   11-Bu
  39   1.0000      -2.503559       -68.1253   10-Au
  40   1.0000      -2.502057       -68.0844   12-Bu
  41   1.0000      -0.588551       -16.0153   12-Ag
  42   1.0000      -0.588445       -16.0124   13-Bu
  43   1.0000      -0.503167       -13.6919   13-Ag
  44   1.0000      -0.502168       -13.6647   14-Bu
  45   1.0000      -0.488277       -13.2867   11-Au
  46   1.0000      -0.488057       -13.2807    9-Bg
  47   1.0000      -0.405330       -11.0296   12-Au
  48   1.0000      -0.402693       -10.9578   10-Bg
  49   1.0000      -0.384659       -10.4671   14-Ag
  50   1.0000      -0.378263       -10.2931   15-Bu
  51   1.0000      -0.320844        -8.7306   15-Ag
  52   1.0000      -0.317893        -8.6503   16-Bu
  53   1.0000      -0.298024        -8.1097   13-Au
  54   1.0000      -0.294227        -8.0063   11-Bg
  55   1.0000      -0.232309        -6.3214   16-Ag
  56   1.0000      -0.227122        -6.1803   17-Bu
  57   1.0000      -0.188711        -5.1351   17-Ag
  58   1.0000      -0.187961        -5.1147   18-Bu
  59   1.0000      -0.176988        -4.8161   14-Au
  60   1.0000      -0.173752        -4.7280   12-Bg
  61   1.0000      -0.145618        -3.9625   15-Au
  62   1.0000      -0.141994        -3.8639   13-Bg
  63   1.0000      -0.129762        -3.5310   18-Ag
  64   1.0000      -0.116482        -3.1696   19-Bu
  65   1.0000      -0.116358        -3.1663   19-Ag
  66   1.0000      -0.113071        -3.0768   20-Bu
  67   1.0000      -0.085095        -2.3156   20-Ag
  68   1.0000      -0.067928        -1.8484   16-Au
  69   1.0000      -0.060803        -1.6545   21-Bu
  70   1.0000      -0.051032        -1.3886   14-Bg
  71   1.0000      -0.037232        -1.0131   21-Ag
  72   1.0000      -0.036403        -0.9906   22-Bu
  73   1.0000      -0.023005        -0.6260   15-Bg
  74   1.0000      -0.022032        -0.5995   22-Ag
  75   1.0000      -0.018228        -0.4960   17-Au
  76   1.0000      -0.002178        -0.0593   16-Bg
  77   1.0000       0.007239         0.1970   17-Bg
  78   1.0000       0.009959         0.2710   23-Ag
  79   1.0000       0.013802         0.3756   24-Ag
  80   1.0000       0.025553         0.6953   23-Bu
  81   1.0000       0.033963         0.9242   25-Ag
  82   1.0000       0.042090         1.1453   18-Au
  83   1.0000       0.053963         1.4684   19-Au
  84   1.0000       0.058039         1.5793   18-Bg
  85   1.0000       0.064899         1.7660   24-Bu
  86   1.0000       0.090778         2.4702   26-Ag
  87   0.0000       0.137092         3.7305   19-Bg
  88   0.0000       0.182426         4.9641   27-Ag
  89   0.0000       0.182519         4.9666   25-Bu
  90   0.0000       0.198680         5.4063   20-Bg
  91   0.0000       0.198858         5.4112   20-Au

MULLIKEN ATOMIC CHARGES AND SPIN POPULATIONS
--------------------------------------------
   0 Cu:    0.149581    0.375506
   1 S :   -0.426953    0.162673
   2 C :    0.023653   -0.007265
   3 S :   -0.426953    0.162673
   4 C :    0.023653   -0.007265
   5 S :   -0.426953    0.162673
   6 C :    0.023653   -0.007265
   7 S :   -0.426953    0.162673
   8 C :    0.023653   -0.007265
   9 C :   -0.093301   -0.001614
  10 C :   -0.093301   -0.001614
  11 C :   -0.136349   -0.000623
  12 H :    0.065904    0.001903
  13 C :   -0.136349   -0.000623
  14 H :    0.065904    0.001903
  15 H :    0.029651    0.001050
  16 H :    0.029651    0.001050
  17 C :   -0.093301   -0.001614
  18 C :   -0.093301   -0.001614
  19 C :   -0.136349   -0.000623
  20 H :    0.065904    0.001903
  21 C :   -0.136349   -0.000623
  22 H :    0.065904    0.001903
  23 H :    0.029651    0.001050
  24 H :    0.029651    0.001050
Sum of atomic charges         :   -2.0000000

LOEWDIN ATOMIC CHARGES AND SPIN POPULATIONS
-------------------------------------------
   0 Cu:   -0.889938    0.441951
   1 S :    0.007203    0.124007
   2 C :   -0.037876    0.005242
   3 S :    0.007203    0.124007
   4 C :   -0.037876    0.005242
   5 S :    0.007203    0.124007
   6 C :   -0.037876    0.005242
   7 S :    0.007203    0.124007
   8 C :   -0.037876    0.005242
   9 C :    0.307305    0.003830
  10 C :    0.307305    0.003830
  11 C :    0.310646    0.000028
  12 H :   -0.448124    0.006173
  13 C :    0.310646    0.000028
  14 H :   -0.448124    0.006173
  15 H :   -0.416669    0.000232
  16 H :   -0.416669    0.000232
  17 C :    0.307305    0.003830
  18 C :    0.307305    0.003830
  19 C :    0.310646    0.000028
  20 H :   -0.448124    0.006173
  21 C :    0.310646    0.000028
  22 H :   -0.448124    0.006173
  23 H :   -0.416669    0.000232
  24 H :   -0.416669    0.000232

  Mayer bond orders larger than 0.100000
B(  0-Cu,  1-S ) :   0.6969 B(  0-Cu,  3-S ) :   0.6969 B(  0-Cu,  5-S ) :   0.6969
B(  0-Cu,  7-S ) :   0.6969 B(  1-S ,  2-C ) :   1.1834 B(  2-C ,  6-C ) :   1.2445
B(  2-C , 17-C ) :   1.3186 B(  3-S ,  4-C ) :   1.1834 B(  4-C ,  8-C ) :   1.2445
B(  4-C , 10-C ) :   1.3186 B(  5-S ,  6-C ) :   1.1834 B(  6-C , 18-C ) :   1.3186
B(  7-S ,  8-C ) :   1.1834 B(  8-C ,  9-C ) :   1.3186 B(  9-C , 13-C ) :   1.3621
B(  9-C , 14-H ) :   0.9694 B( 10-C , 11-C ) :   1.3621 B( 10-C , 12-H ) :   0.9694
B( 11-C , 13-C ) :   1.3393 B( 11-C , 15-H ) :   0.9890 B( 13-C , 16-H ) :   0.9890
B( 17-C , 19-C ) :   1.3621 B( 17-C , 20-H ) :   0.9694 B( 18-C , 21-C ) :   1.3621
B( 18-C , 22-H ) :   0.9694 B( 19-C , 21-C ) :   1.3393 B( 19-C , 23-H ) :   0.9890
B( 21-C , 24-H ) :   0.9890

FINAL SINGLE POINT ENERGY     -3686.928075664815

DIPOLE MOMENT
-------------
                                X             Y             Z
Electronic contribution:      0.00000       0.00000      -0.00000
Nuclear contribution   :     -0.00000      -0.00000       0.00000
                        -----------------------------------------
Total Dipole Moment    :      0.00000       0.00000      -0.00000
                        -----------------------------------------
Magnitude (a.u.)       :      0.00000
Magnitude (Debye)      :      0.00000

Rotational constants in cm-1:     0.033191     0.004799     0.004200
Rotational constants in MHz :   995.032200   143.873654   125.919618

                             ****ORCA TERMINATED NORMALLY****
TOTAL RUN TIME: 0 days 6 hours 7 minutes 3 seconds 599 msec
