                         Program Version 5.0.4 -  RELEASE  -
|  1> ! RIJCOSX nofrozencore ReducedPop printbasis
|  2> ! M06L ano-rcc-dzp autoaux
|  3>
|  4> %maxcore 5000
|  5> %basis
|  6> PCDTrimBas overlap
|  7> PCDTrimAuxJ Coulomb
|  8> PCDTrimAuxJK Coulomb
|  9> PCDTrimAuxC Coulomb
| 10> PCDThresh -1
| 11> end
| 12>
| 13> %basis
| 14> newgto Cu "ano-rcc-tzp" end
| 15> newgto S "ano-rcc-tzp" end
| 16> end
| 17>
| 18> %pal
| 19> nprocs 12
| 20> end
| 21>
| 22> % sym SymThresh 1e-2 end
| 23> * xyz -2 2
| 24> Cu -2.0146845022176618e-08 9.218979608740905e-07 -3.869085865832474e-07
| 25> S 2.268341601644938 0.23173832674724165 0.41610129565920084
| 26> C 2.355676831847298 0.7756982011885629 2.075286415756799
| 27> S 0.4088736033026081 -0.8717981180432492 -2.1083104607238448
| 28> C -1.1720222316947433 -1.2505257579433005 -2.7398476869312653
| 29> S -0.4088097378038878 0.8688757015072784 2.1095369609433137
| 30> C 1.170689981273962 1.3114881044020212 2.714262582826275
| 31> S -2.268405507437348 -0.22881406641534904 -0.4173285696958429
| 32> C -2.354344077755391 -0.8366835950963057 -2.049691638937144
| 33> C -3.5947690209301824 -1.200363568727057 -2.601695870466896
| 34> C -1.312115570804638 -1.703906060366554 -4.06289389284081
| 35> C -2.552724860908617 -2.038446734782455 -4.597071757172583
| 36> H -0.4093106199339622 -1.8163203272644775 -4.6648969574760315
| 37> C -3.708841813506083 -1.6675782331293967 -3.9074824491294824
| 38> H -4.4859177119371125 -1.0810306142918715 -1.9838686879810454
| 39> H -2.6171419459151477 -2.4037522599449646 -5.619658568204295
| 40> H -4.68947845835617 -1.921328862168101 -4.304104437619313
| 41> C 3.5942210112612227 1.2254139708925442 2.59118164359327
| 42> C 1.3126635603267527 1.6788565800990278 4.073407732805849
| 43> C 3.7098101313183838 1.6232690514359052 3.926078436526433
| 44> H 4.483222446863201 1.2043630453955683 1.9321076703593518
| 45> C 2.551755616341445 2.0827983237821464 4.57845797198065
| 46> H 0.4120056788769353 1.6930232594086387 4.716644032421834
| 47> H 4.689386127964561 1.9255915171920825 4.30231484988877
| 48> H 2.617243488613187 2.3991434908914546 5.621592201802443
| 49> *
| 50>
| 51> % eprnmr
| 52> gtensor true
| 53> Nuclei = all H {aiso,adip,aorb,fgrad,rho}
| 54> Nuclei = all Cu {aiso,adip,aorb,fgrad,rho}
| 55> end
| 56>
| 57>                          ****END OF INPUT****

CARTESIAN COORDINATES (ANGSTROEM)
---------------------------------
  Cu     0.000000   -0.000000   -0.000000
  S      1.608934   -0.146748    1.661931
  C      0.695652   -0.202378    3.151642
  S      1.608632   -0.149904   -1.661931
  C      0.701943   -0.136539   -3.151642
  S     -1.608934    0.146748    1.661931
  C     -0.695652    0.202378    3.151642
  S     -1.608632    0.149904   -1.661931
  C     -0.701943    0.136539   -3.151642
  C     -1.374428    0.103621   -4.385461
  C      1.374428   -0.103621   -4.385461
  C      0.688584   -0.115208   -5.596188
  H      2.465270   -0.096253   -4.375043
  C     -0.688584    0.115208   -5.596188
  H     -2.465270    0.096253   -4.375043
  H      1.246148   -0.107761   -6.530201
  H     -1.246148    0.107761   -6.530201
  C      1.377013   -0.076572    4.385460
  C     -1.377013    0.076572    4.385460
  C      0.684010   -0.163076    5.596188
  H      2.477993    0.036902    4.375043
  C     -0.684010    0.163076    5.596188
  H     -2.477993   -0.036902    4.375043
  H      1.246606   -0.102971    6.530201
  H     -1.246606    0.102971    6.530201

 Total Charge           Charge          ....   -2
 Multiplicity           Mult            ....    2
 Number of Electrons    NEL             ....  175
 Basis Dimension        Dim             ....  475

ORBITAL ENERGIES
----------------
                 SPIN UP ORBITALS
  NO   OCC          E(Eh)            E(eV)    Irrep
   0   1.0000    -318.182463     -8658.1850    1-A
   1   1.0000     -88.015912     -2395.0347    1-B
   2   1.0000     -88.015906     -2395.0346    2-A
   3   1.0000     -88.015349     -2395.0194    2-B
   4   1.0000     -88.015339     -2395.0191    3-A
   5   1.0000     -38.027682     -1034.7858    4-A
   6   1.0000     -33.530819      -912.4200    3-B
   7   1.0000     -33.529939      -912.3960    5-A
   8   1.0000     -33.516252      -912.0236    4-B
   9   1.0000      -9.837221      -267.6844    6-A
  10   1.0000      -9.836958      -267.6772    5-B
  11   1.0000      -9.834234      -267.6031    7-A
  12   1.0000      -9.833923      -267.5947    6-B
  13   1.0000      -9.825391      -267.3625    8-A
  14   1.0000      -9.825009      -267.3521    7-B
  15   1.0000      -9.824558      -267.3398    9-A
  16   1.0000      -9.824140      -267.3284    8-B
  17   1.0000      -9.821682      -267.2616    9-B
  18   1.0000      -9.821682      -267.2615   10-A
  19   1.0000      -9.818188      -267.1665   10-B
  20   1.0000      -9.818184      -267.1664   11-A
  21   1.0000      -7.584470      -206.3839   11-B
  22   1.0000      -7.584465      -206.3838   12-A
  23   1.0000      -7.584012      -206.3715   12-B
  24   1.0000      -7.584004      -206.3712   13-A
  25   1.0000      -5.507634      -149.8704   13-B
  26   1.0000      -5.507634      -149.8703   14-A
  27   1.0000      -5.507205      -149.8587   14-B
  28   1.0000      -5.507204      -149.8587   15-A
  29   1.0000      -5.502403      -149.7280   15-B
  30   1.0000      -5.502403      -149.7280   16-A
  31   1.0000      -5.501931      -149.7152   16-B
  32   1.0000      -5.501931      -149.7152   17-A
  33   1.0000      -5.500596      -149.6788   18-A
  34   1.0000      -5.500596      -149.6788   17-B
  35   1.0000      -5.500090      -149.6651   19-A
  36   1.0000      -5.500090      -149.6650   18-B
  37   1.0000      -4.025261      -109.5329   20-A
  38   1.0000      -2.546682       -69.2987   19-B
  39   1.0000      -2.545091       -69.2555   21-A
  40   1.0000      -2.517826       -68.5135   20-B
  41   1.0000      -0.589236       -16.0339   22-A
  42   1.0000      -0.586933       -15.9713   23-A
  43   1.0000      -0.504029       -13.7153   24-A
  44   1.0000      -0.501424       -13.6444   25-A
  45   1.0000      -0.489758       -13.3270   21-B
  46   1.0000      -0.487549       -13.2669   22-B
  47   1.0000      -0.409613       -11.1461   23-B
  48   1.0000      -0.406746       -11.0681   24-B
  49   1.0000      -0.386943       -10.5292   26-A
  50   1.0000      -0.379802       -10.3349   27-A
  51   1.0000      -0.319655        -8.6983   28-A
  52   1.0000      -0.313546        -8.5320   29-A
  53   1.0000      -0.299079        -8.1383   25-B
  54   1.0000      -0.294868        -8.0238   26-B
  55   1.0000      -0.231288        -6.2937   30-A
  56   1.0000      -0.224962        -6.1215   31-A
  57   1.0000      -0.187813        -5.1107   32-A
  58   1.0000      -0.180922        -4.9231   33-A
  59   1.0000      -0.180159        -4.9024   27-B
  60   1.0000      -0.176837        -4.8120   28-B
  61   1.0000      -0.146840        -3.9957   29-B
  62   1.0000      -0.143108        -3.8942   30-B
  63   1.0000      -0.129863        -3.5337   34-A
  64   1.0000      -0.115083        -3.1316   31-B
  65   1.0000      -0.113653        -3.0927   35-A
  66   1.0000      -0.109047        -2.9673   32-B
  67   1.0000      -0.091978        -2.5028   36-A
  68   1.0000      -0.070514        -1.9188   33-B
  69   1.0000      -0.068828        -1.8729   37-A
  70   1.0000      -0.066331        -1.8050   34-B
  71   1.0000      -0.042112        -1.1459   35-B
  72   1.0000      -0.036400        -0.9905   36-B
  73   1.0000      -0.032642        -0.8882   38-A
  74   1.0000      -0.026858        -0.7308   37-B
  75   1.0000      -0.022266        -0.6059   39-A
  76   1.0000      -0.010567        -0.2875   40-A
  77   1.0000      -0.004102        -0.1116   41-A
  78   1.0000       0.000531         0.0144   38-B
  79   1.0000       0.004026         0.1096   42-A
  80   1.0000       0.018167         0.4944   43-A
  81   1.0000       0.020210         0.5499   44-A
  82   1.0000       0.033771         0.9190   39-B
  83   1.0000       0.049726         1.3531   45-A
  84   1.0000       0.051624         1.4048   46-A
  85   1.0000       0.061420         1.6713   40-B
  86   1.0000       0.086387         2.3507   41-B
  87   1.0000       0.104056         2.8315   42-B
  88   0.0000       0.181268         4.9325   47-A
  89   0.0000       0.181735         4.9453   48-A
  90   0.0000       0.191136         5.2011   43-B
  91   0.0000       0.195808         5.3282   49-A
  92   0.0000       0.196778         5.3546   44-B

                 SPIN DOWN ORBITALS
  NO   OCC          E(Eh)            E(eV)    Irrep
   0   1.0000    -318.182291     -8658.1803    1-A
   1   1.0000     -88.014846     -2395.0057    1-B
   2   1.0000     -88.014840     -2395.0056    2-A
   3   1.0000     -88.014277     -2394.9902    2-B
   4   1.0000     -88.014267     -2394.9900    3-A
   5   1.0000     -38.011856     -1034.3552    4-A
   6   1.0000     -33.515702      -912.0086    3-B
   7   1.0000     -33.514855      -911.9856    5-A
   8   1.0000     -33.511938      -911.9062    4-B
   9   1.0000      -9.837327      -267.6873    6-A
  10   1.0000      -9.837064      -267.6801    5-B
  11   1.0000      -9.834346      -267.6062    7-A
  12   1.0000      -9.834035      -267.5977    6-B
  13   1.0000      -9.825371      -267.3619    8-A
  14   1.0000      -9.824990      -267.3516    7-B
  15   1.0000      -9.824536      -267.3392    9-A
  16   1.0000      -9.824118      -267.3278    8-B
  17   1.0000      -9.821623      -267.2600    9-B
  18   1.0000      -9.821623      -267.2599   10-A
  19   1.0000      -9.818129      -267.1649   10-B
  20   1.0000      -9.818126      -267.1648   11-A
  21   1.0000      -7.583745      -206.3642   11-B
  22   1.0000      -7.583740      -206.3641   12-A
  23   1.0000      -7.583281      -206.3516   12-B
  24   1.0000      -7.583274      -206.3514   13-A
  25   1.0000      -5.506711      -149.8452   13-B
  26   1.0000      -5.506710      -149.8452   14-A
  27   1.0000      -5.506274      -149.8333   14-B
  28   1.0000      -5.506274      -149.8333   15-A
  29   1.0000      -5.500238      -149.6691   15-B
  30   1.0000      -5.500238      -149.6691   16-A
  31   1.0000      -5.499723      -149.6551   17-A
  32   1.0000      -5.499723      -149.6551   16-B
  33   1.0000      -5.499707      -149.6546   17-B
  34   1.0000      -5.499706      -149.6546   18-A
  35   1.0000      -5.499257      -149.6424   19-A
  36   1.0000      -5.499257      -149.6424   18-B
  37   1.0000      -3.991615      -108.6174   20-A
  38   1.0000      -2.506195       -68.1970   19-B
  39   1.0000      -2.504683       -68.1559   20-B
  40   1.0000      -2.503116       -68.1132   21-A
  41   1.0000      -0.588867       -16.0239   22-A
  42   1.0000      -0.586551       -15.9609   23-A
  43   1.0000      -0.502700       -13.6792   24-A
  44   1.0000      -0.500087       -13.6080   25-A
  45   1.0000      -0.488708       -13.2984   21-B
  46   1.0000      -0.486474       -13.2376   22-B
  47   1.0000      -0.405628       -11.0377   23-B
  48   1.0000      -0.402672       -10.9573   24-B
  49   1.0000      -0.383706       -10.4412   26-A
  50   1.0000      -0.376598       -10.2478   27-A
  51   1.0000      -0.318376        -8.6634   28-A
  52   1.0000      -0.312178        -8.4948   29-A
  53   1.0000      -0.297254        -8.0887   25-B
  54   1.0000      -0.292689        -7.9645   26-B
  55   1.0000      -0.230696        -6.2775   30-A
  56   1.0000      -0.224265        -6.1026   31-A
  57   1.0000      -0.186838        -5.0841   32-A
  58   1.0000      -0.179905        -4.8955   33-A
  59   1.0000      -0.179649        -4.8885   27-B
  60   1.0000      -0.176068        -4.7911   28-B
  61   1.0000      -0.146099        -3.9756   29-B
  62   1.0000      -0.141420        -3.8482   30-B
  63   1.0000      -0.128599        -3.4993   34-A
  64   1.0000      -0.114875        -3.1259   31-B
  65   1.0000      -0.112861        -3.0711   35-A
  66   1.0000      -0.108783        -2.9601   32-B
  67   1.0000      -0.090693        -2.4679   36-A
  68   1.0000      -0.069127        -1.8810   33-B
  69   1.0000      -0.067156        -1.8274   37-A
  70   1.0000      -0.054523        -1.4836   34-B
  71   1.0000      -0.035892        -0.9767   35-B
  72   1.0000      -0.031772        -0.8646   36-B
  73   1.0000      -0.026982        -0.7342   38-A
  74   1.0000      -0.017094        -0.4651   39-A
  75   1.0000      -0.007686        -0.2092   40-A
  76   1.0000      -0.003277        -0.0892   37-B
  77   1.0000       0.006370         0.1733   41-A
  78   1.0000       0.012648         0.3442   38-B
  79   1.0000       0.012897         0.3509   42-A
  80   1.0000       0.026260         0.7146   43-A
  81   1.0000       0.033411         0.9091   44-A
  82   1.0000       0.042068         1.1447   39-B
  83   1.0000       0.052428         1.4266   45-A
  84   1.0000       0.056989         1.5508   46-A
  85   1.0000       0.063303         1.7226   40-B
  86   1.0000       0.090562         2.4643   41-B
  87   0.0000       0.136954         3.7267   42-B
  88   0.0000       0.182377         4.9627   47-A
  89   0.0000       0.182739         4.9726   48-A
  90   0.0000       0.191319         5.2061   43-B
  91   0.0000       0.196265         5.3407   49-A

MULLIKEN ATOMIC CHARGES AND SPIN POPULATIONS
--------------------------------------------
   0 Cu:    0.141078    0.374610
   1 S :   -0.399791    0.162383
   2 C :   -0.003640   -0.006758
   3 S :   -0.416265    0.163320
   4 C :    0.014938   -0.007310
   5 S :   -0.399791    0.162383
   6 C :   -0.003640   -0.006758
   7 S :   -0.416265    0.163320
   8 C :    0.014938   -0.007310
   9 C :   -0.082033   -0.001593
  10 C :   -0.082033   -0.001593
  11 C :   -0.144388   -0.000917
  12 H :    0.059093    0.001999
  13 C :   -0.144388   -0.000917
  14 H :    0.059093    0.001999
  15 H :    0.034347    0.001084
  16 H :    0.034347    0.001084
  17 C :   -0.057955   -0.001409
  18 C :   -0.057955   -0.001409
  19 C :   -0.159527   -0.001060
  20 H :    0.044766    0.001907
  21 C :   -0.159527   -0.001060
  22 H :    0.044766    0.001907
  23 H :    0.039917    0.001049
  24 H :    0.039917    0.001049
Sum of atomic charges         :   -2.0000000

LOEWDIN ATOMIC CHARGES AND SPIN POPULATIONS
-------------------------------------------
   0 Cu:   -0.895600    0.441404
   1 S :    0.000308    0.123989
   2 C :   -0.029837    0.005415
   3 S :    0.006674    0.124439
   4 C :   -0.035886    0.005231
   5 S :    0.000308    0.123989
   6 C :   -0.029837    0.005415
   7 S :    0.006674    0.124439
   8 C :   -0.035886    0.005231
   9 C :    0.304244    0.003915
  10 C :    0.304244    0.003915
  11 C :    0.310846   -0.000169
  12 H :   -0.441786    0.006243
  13 C :    0.310846   -0.000169
  14 H :   -0.441786    0.006243
  15 H :   -0.419982    0.000195
  16 H :   -0.419982    0.000195
  17 C :    0.297904    0.004026
  18 C :    0.297904    0.004026
  19 C :    0.307970   -0.000300
  20 H :   -0.427246    0.006154
  21 C :    0.307970   -0.000300
  22 H :   -0.427246    0.006154
  23 H :   -0.425410    0.000162
  24 H :   -0.425410    0.000162

  Mayer bond orders larger than 0.100000
B(  0-Cu,  1-S ) :   0.7005 B(  0-Cu,  3-S ) :   0.7016 B(  0-Cu,  5-S ) :   0.7005
B(  0-Cu,  7-S ) :   0.7016 B(  1-S ,  2-C ) :   1.1893 B(  2-C ,  6-C ) :   1.2481
B(  2-C , 17-C ) :   1.3059 B(  3-S ,  4-C ) :   1.1861 B(  4-C ,  8-C ) :   1.2475
B(  4-C , 10-C ) :   1.3147 B(  5-S ,  6-C ) :   1.1893 B(  6-C , 18-C ) :   1.3059
B(  7-S ,  8-C ) :   1.1861 B(  8-C ,  9-C ) :   1.3147 B(  9-C , 13-C ) :   1.3629
B(  9-C , 14-H ) :   0.9731 B( 10-C , 11-C ) :   1.3629 B( 10-C , 12-H ) :   0.9731
B( 11-C , 13-C ) :   1.3425 B( 11-C , 15-H ) :   0.9863 B( 13-C , 16-H ) :   0.9863
B( 17-C , 19-C ) :   1.3639 B( 17-C , 20-H ) :   0.9804 B( 18-C , 21-C ) :   1.3639
B( 18-C , 22-H ) :   0.9804 B( 19-C , 21-C ) :   1.3450 B( 19-C , 23-H ) :   0.9834
B( 21-C , 24-H ) :   0.9834

FINAL SINGLE POINT ENERGY     -3686.888084861918

DIPOLE MOMENT
-------------
                                X             Y             Z
Electronic contribution:      0.00000       0.00000      -0.09143
Nuclear contribution   :      0.00000       0.00000       0.00000
                        -----------------------------------------
Total Dipole Moment    :      0.00000       0.00000      -0.09143
                        -----------------------------------------
Magnitude (a.u.)       :      0.09143
Magnitude (Debye)      :      0.23239

Rotational constants in cm-1:     0.033349     0.004802     0.004200
Rotational constants in MHz :   999.764782   143.972201   125.919615

                             ****ORCA TERMINATED NORMALLY****
TOTAL RUN TIME: 0 days 5 hours 26 minutes 56 seconds 219 msec
