                         Program Version 5.0.4 -  RELEASE  -
|  1> ! RIJCOSX nofrozencore ReducedPop printbasis
|  2> ! M06L ano-rcc-dzp autoaux
|  3>
|  4> %maxcore 5000
|  5> %basis
|  6> PCDTrimBas overlap
|  7> PCDTrimAuxJ Coulomb
|  8> PCDTrimAuxJK Coulomb
|  9> PCDTrimAuxC Coulomb
| 10> PCDThresh -1
| 11> end
| 12>
| 13> %basis
| 14> newgto Cu "ano-rcc-tzp" end
| 15> newgto S "ano-rcc-tzp" end
| 16> end
| 17>
| 18> %pal
| 19> nprocs 12
| 20> end
| 21>
| 22> % sym SymThresh 1e-2 end
| 23> * xyz -2 2
| 24> Cu -3.563781631393841e-06 -1.0742317539077535e-05 1.539162351324145e-05
| 25> S -1.0631148469389369 -1.4865344642692107 -1.4267207999632772
| 26> C -0.8942015866624061 -0.7228421576020841 -3.0478822546917064
| 27> S -0.4581555001124179 -1.340051964541829 1.8352194684403076
| 28> C 0.2564357781717729 -0.4584408918110212 3.206129583451354
| 29> S 0.4587404049648333 1.3409706089005466 -1.8347875554214985
| 30> C -0.26621523001655184 0.44414227812613605 -3.217067291177659
| 31> S 1.0627281796408679 1.4856232529639077 1.4274998913299939
| 32> C 0.8991025379811636 0.735942586484977 3.0325743755356824
| 33> C 1.437867756039742 1.4004946728205183 4.0666520416591565
| 34> C 0.13632505426736385 -1.0186176854052846 4.418913835713317
| 35> C 0.6928542465272679 -0.3668730516246478 5.608706797282129
| 36> H -0.33437151136023546 -1.9578581837022333 4.771831872106023
| 37> C 1.3517049216660515 0.8552638721670763 5.438922163954873
| 38> H 1.9900288218386892 2.35999671927715 4.151112730629272
| 39> H 0.635216700059593 -0.7603538586700982 6.6274002172658095
| 40> H 1.7739511621912747 1.358315478245234 6.311634095570628
| 41> C -1.432896585610641 -1.4019018660853282 -4.030701535950888
| 42> C -0.12695659845195395 1.0249494769657401 -4.382633046633287
| 43> C -1.3546710866247713 -0.8568881582709985 -5.4517417577507095
| 44> H -2.008537450322355 -2.3675293939337054 -4.240223349279196
| 45> C -0.696818750308228 0.36451569980384513 -5.6251882975828815
| 46> H 0.3208745079832675 1.959468471133408 -4.8616967361087635
| 47> H -1.7678046143800734 -1.3373795403432165 -6.346616990807693
| 48> H -0.6455888823138912 0.7488306665912938 -6.651758984919338
| 49> *
| 50>
| 51> % eprnmr
| 52> gtensor true
| 53> Nuclei = all H {aiso,adip,aorb,fgrad,rho}
| 54> Nuclei = all Cu {aiso,adip,aorb,fgrad,rho}
| 55> end
| 56>
| 57>                          ****END OF INPUT****

CARTESIAN COORDINATES (ANGSTROEM)
---------------------------------
  Cu    -0.000012    0.000015    0.000000
  S     -1.759462   -1.509909    0.000000
  C     -0.947958   -3.116578    0.000000
  S     -1.463567    1.797678    0.000000
  C     -0.399495    3.224221    0.000000
  S      1.464637   -1.797200    0.000000
  C      0.382680   -3.235925    0.000000
  S      1.758448    1.510657    0.000000
  C      0.962370    3.101669    0.000000
  C      1.764487    4.177690    0.000000
  C     -0.993813    4.426658    0.000000
  C     -0.200260    5.659694    0.000000
  H     -2.056262    4.742065    0.000000
  C      1.193556    5.542191    0.000000
  H      2.867322    4.305810    0.000000
  H     -0.611175    6.673121    0.000000
  H      1.804272    6.447732    0.000000
  C     -1.764689   -4.141370    0.000000
  C      1.002493   -4.389660    0.000000
  C     -1.195920   -5.555237    0.000000
  H     -2.879452   -4.396324    0.000000
  C      0.196912   -5.676477    0.000000
  H      2.054580   -4.832936    0.000000
  H     -1.781654   -6.482204    0.000000
  H      0.597014   -6.698284    0.000000

 Total Charge           Charge          ....   -2
 Multiplicity           Mult            ....    2
 Number of Electrons    NEL             ....  175
 Basis Dimension        Dim             ....  475

ORBITAL ENERGIES
----------------
                 SPIN UP ORBITALS
  NO   OCC          E(Eh)            E(eV)    Irrep
   0   1.0000    -318.176161     -8658.0135    1-A'
   1   1.0000     -88.011782     -2394.9223    2-A'
   2   1.0000     -88.011612     -2394.9177    3-A'
   3   1.0000     -88.011558     -2394.9163    4-A'
   4   1.0000     -88.011190     -2394.9062    5-A'
   5   1.0000     -38.021364     -1034.6139    6-A'
   6   1.0000     -33.524426      -912.2460    7-A'
   7   1.0000     -33.523737      -912.2273    8-A'
   8   1.0000     -33.509904      -911.8508    1-A"
   9   1.0000      -9.834712      -267.6161    9-A'
  10   1.0000      -9.834303      -267.6050   10-A'
  11   1.0000      -9.833558      -267.5847   11-A'
  12   1.0000      -9.832887      -267.5665   12-A'
  13   1.0000      -9.832608      -267.5589   13-A'
  14   1.0000      -9.832042      -267.5435   14-A'
  15   1.0000      -9.831652      -267.5329   15-A'
  16   1.0000      -9.831311      -267.5236   16-A'
  17   1.0000      -9.830115      -267.4910   17-A'
  18   1.0000      -9.829709      -267.4800   18-A'
  19   1.0000      -9.824219      -267.3306   19-A'
  20   1.0000      -9.823681      -267.3159   20-A'
  21   1.0000      -7.579830      -206.2577   21-A'
  22   1.0000      -7.579772      -206.2561   22-A'
  23   1.0000      -7.579575      -206.2507   23-A'
  24   1.0000      -7.579451      -206.2473   24-A'
  25   1.0000      -5.503601      -149.7606   25-A'
  26   1.0000      -5.503439      -149.7562   26-A'
  27   1.0000      -5.503400      -149.7551   27-A'
  28   1.0000      -5.503056      -149.7458   28-A'
  29   1.0000      -5.497696      -149.5999   29-A'
  30   1.0000      -5.497661      -149.5990   30-A'
  31   1.0000      -5.497464      -149.5936   31-A'
  32   1.0000      -5.497324      -149.5898   32-A'
  33   1.0000      -5.495680      -149.5451    2-A"
  34   1.0000      -5.495462      -149.5391    3-A"
  35   1.0000      -5.495292      -149.5345    4-A"
  36   1.0000      -5.495264      -149.5337    5-A"
  37   1.0000      -4.018984      -109.3621   33-A'
  38   1.0000      -2.540249       -69.1237   34-A'
  39   1.0000      -2.538990       -69.0894   35-A'
  40   1.0000      -2.511559       -68.3430    6-A"
  41   1.0000      -0.602508       -16.3951   36-A'
  42   1.0000      -0.595352       -16.2003   37-A'
  43   1.0000      -0.501772       -13.6539   38-A'
  44   1.0000      -0.501139       -13.6367   39-A'
  45   1.0000      -0.493508       -13.4290   40-A'
  46   1.0000      -0.490244       -13.3402   41-A'
  47   1.0000      -0.396206       -10.7813   42-A'
  48   1.0000      -0.391652       -10.6574   43-A'
  49   1.0000      -0.390350       -10.6220   44-A'
  50   1.0000      -0.384131       -10.4527   45-A'
  51   1.0000      -0.334475        -9.1015   46-A'
  52   1.0000      -0.328944        -8.9510   47-A'
  53   1.0000      -0.303564        -8.2604   48-A'
  54   1.0000      -0.298326        -8.1179   49-A'
  55   1.0000      -0.226516        -6.1638   50-A'
  56   1.0000      -0.222449        -6.0531   51-A'
  57   1.0000      -0.210267        -5.7217   52-A'
  58   1.0000      -0.200789        -5.4638   53-A'
  59   1.0000      -0.194055        -5.2805   54-A'
  60   1.0000      -0.189216        -5.1488   55-A'
  61   1.0000      -0.135669        -3.6917   56-A'
  62   1.0000      -0.131368        -3.5747   57-A'
  63   1.0000      -0.127861        -3.4793    7-A"
  64   1.0000      -0.122471        -3.3326   58-A'
  65   1.0000      -0.121796        -3.3142    8-A"
  66   1.0000      -0.115910        -3.1541   59-A'
  67   1.0000      -0.068783        -1.8717   60-A'
  68   1.0000      -0.058190        -1.5834   61-A'
  69   1.0000      -0.052151        -1.4191   62-A'
  70   1.0000      -0.050159        -1.3649   63-A'
  71   1.0000      -0.034211        -0.9309    9-A"
  72   1.0000      -0.033193        -0.9032   10-A"
  73   1.0000      -0.030639        -0.8337   64-A'
  74   1.0000      -0.025738        -0.7004   11-A"
  75   1.0000      -0.023694        -0.6448   65-A'
  76   1.0000      -0.020343        -0.5536   12-A"
  77   1.0000       0.000420         0.0114   13-A"
  78   1.0000       0.002703         0.0735   14-A"
  79   1.0000       0.002744         0.0747   66-A'
  80   1.0000       0.019283         0.5247   67-A'
  81   1.0000       0.021533         0.5859   68-A'
  82   1.0000       0.039626         1.0783   69-A'
  83   1.0000       0.053283         1.4499   15-A"
  84   1.0000       0.059012         1.6058   16-A"
  85   1.0000       0.061605         1.6764   17-A"
  86   1.0000       0.081110         2.2071   18-A"
  87   1.0000       0.111475         3.0334   70-A'
  88   0.0000       0.177668         4.8346   71-A'
  89   0.0000       0.179770         4.8918   72-A'
  90   0.0000       0.191738         5.2175   73-A'
  91   0.0000       0.192451         5.2369   19-A"
  92   0.0000       0.194402         5.2899   74-A'

                 SPIN DOWN ORBITALS
  NO   OCC          E(Eh)            E(eV)    Irrep
   0   1.0000    -318.175990     -8658.0089    1-A'
   1   1.0000     -88.010694     -2394.8927    2-A'
   2   1.0000     -88.010536     -2394.8884    3-A'
   3   1.0000     -88.010472     -2394.8867    4-A'
   4   1.0000     -88.010113     -2394.8769    5-A'
   5   1.0000     -38.005676     -1034.1870    6-A'
   6   1.0000     -33.509436      -911.8381    7-A'
   7   1.0000     -33.508773      -911.8201    8-A'
   8   1.0000     -33.505637      -911.7347    1-A"
   9   1.0000      -9.834660      -267.6147    9-A'
  10   1.0000      -9.834252      -267.6036   10-A'
  11   1.0000      -9.833656      -267.5874   11-A'
  12   1.0000      -9.832978      -267.5689   12-A'
  13   1.0000      -9.832715      -267.5618   13-A'
  14   1.0000      -9.832149      -267.5464   14-A'
  15   1.0000      -9.831643      -267.5326   15-A'
  16   1.0000      -9.831297      -267.5232   16-A'
  17   1.0000      -9.830078      -267.4900   17-A'
  18   1.0000      -9.829673      -267.4790   18-A'
  19   1.0000      -9.824184      -267.3296   19-A'
  20   1.0000      -9.823644      -267.3149   20-A'
  21   1.0000      -7.579093      -206.2376   21-A'
  22   1.0000      -7.579025      -206.2358   22-A'
  23   1.0000      -7.578825      -206.2303   23-A'
  24   1.0000      -7.578709      -206.2271   24-A'
  25   1.0000      -5.502662      -149.7350   25-A'
  26   1.0000      -5.502511      -149.7309   26-A'
  27   1.0000      -5.502457      -149.7295   27-A'
  28   1.0000      -5.502120      -149.7203   28-A'
  29   1.0000      -5.495430      -149.5383   29-A'
  30   1.0000      -5.495360      -149.5363   30-A'
  31   1.0000      -5.495159      -149.5309   31-A'
  32   1.0000      -5.495049      -149.5279   32-A'
  33   1.0000      -5.494862      -149.5228    2-A"
  34   1.0000      -5.494637      -149.5167    3-A"
  35   1.0000      -5.494471      -149.5122    4-A"
  36   1.0000      -5.494438      -149.5113    5-A"
  37   1.0000      -3.985800      -108.4591   33-A'
  38   1.0000      -2.499995       -68.0283    6-A"
  39   1.0000      -2.498844       -67.9970   34-A'
  40   1.0000      -2.497564       -67.9622   35-A'
  41   1.0000      -0.602132       -16.3848   36-A'
  42   1.0000      -0.594971       -16.1900   37-A'
  43   1.0000      -0.501040       -13.6340   38-A'
  44   1.0000      -0.500411       -13.6169   39-A'
  45   1.0000      -0.492440       -13.4000   40-A'
  46   1.0000      -0.489195       -13.3117   41-A'
  47   1.0000      -0.392364       -10.6768   42-A'
  48   1.0000      -0.387934       -10.5562   43-A'
  49   1.0000      -0.386527       -10.5179   44-A'
  50   1.0000      -0.380614       -10.3570   45-A'
  51   1.0000      -0.333106        -9.0643   46-A'
  52   1.0000      -0.327448        -8.9103   47-A'
  53   1.0000      -0.301318        -8.1993   48-A'
  54   1.0000      -0.295805        -8.0493   49-A'
  55   1.0000      -0.225951        -6.1484   50-A'
  56   1.0000      -0.221794        -6.0353   51-A'
  57   1.0000      -0.209509        -5.7010   52-A'
  58   1.0000      -0.199999        -5.4422   53-A'
  59   1.0000      -0.193658        -5.2697   54-A'
  60   1.0000      -0.188716        -5.1352   55-A'
  61   1.0000      -0.134396        -3.6571   56-A'
  62   1.0000      -0.130199        -3.5429   57-A'
  63   1.0000      -0.127722        -3.4755    7-A"
  64   1.0000      -0.121631        -3.3097    8-A"
  65   1.0000      -0.120348        -3.2748   58-A'
  66   1.0000      -0.114786        -3.1235   59-A'
  67   1.0000      -0.067683        -1.8417   60-A'
  68   1.0000      -0.055097        -1.4993   61-A'
  69   1.0000      -0.048975        -1.3327   62-A'
  70   1.0000      -0.036530        -0.9940   63-A'
  71   1.0000      -0.032908        -0.8955    9-A"
  72   1.0000      -0.032661        -0.8887   10-A"
  73   1.0000      -0.023952        -0.6518   64-A'
  74   1.0000      -0.023714        -0.6453   11-A"
  75   1.0000      -0.019540        -0.5317   12-A"
  76   1.0000       0.001858         0.0506   65-A'
  77   1.0000       0.010923         0.2972   13-A"
  78   1.0000       0.012990         0.3535   66-A'
  79   1.0000       0.014669         0.3992   14-A"
  80   1.0000       0.026504         0.7212   67-A'
  81   1.0000       0.038051         1.0354   68-A'
  82   1.0000       0.047672         1.2972   69-A'
  83   1.0000       0.055552         1.5116   15-A"
  84   1.0000       0.062355         1.6968   16-A"
  85   1.0000       0.066917         1.8209   17-A"
  86   1.0000       0.086074         2.3422   18-A"
  87   0.0000       0.143805         3.9131   70-A'
  88   0.0000       0.180215         4.9039   71-A'
  89   0.0000       0.181781         4.9465   72-A'
  90   0.0000       0.192402         5.2355   19-A"
  91   0.0000       0.196086         5.3358   73-A'

MULLIKEN ATOMIC CHARGES AND SPIN POPULATIONS
--------------------------------------------
   0 Cu:    0.163189    0.370947
   1 S :   -0.465613    0.166023
   2 C :    0.024393   -0.009323
   3 S :   -0.452626    0.163447
   4 C :    0.017213   -0.008613
   5 S :   -0.465398    0.166044
   6 C :    0.023100   -0.009339
   7 S :   -0.452829    0.163826
   8 C :    0.020372   -0.008595
   9 C :   -0.066496   -0.001524
  10 C :   -0.069764   -0.001433
  11 C :   -0.118689   -0.000098
  12 H :    0.046983    0.001063
  13 C :   -0.118701   -0.000051
  14 H :    0.046057    0.001086
  15 H :    0.033545    0.001376
  16 H :    0.032582    0.001408
  17 C :   -0.045568   -0.001625
  18 C :   -0.047416   -0.001547
  19 C :   -0.118218    0.000622
  20 H :    0.031064    0.001207
  21 C :   -0.118866    0.000576
  22 H :    0.031915    0.001164
  23 H :    0.034522    0.001686
  24 H :    0.035250    0.001671
Sum of atomic charges         :   -2.0000000

LOEWDIN ATOMIC CHARGES AND SPIN POPULATIONS
-------------------------------------------
   0 Cu:   -0.917062    0.437726
   1 S :   -0.013738    0.128061
   2 C :   -0.074332    0.003396
   3 S :   -0.006860    0.125855
   4 C :   -0.058515    0.003990
   5 S :   -0.012866    0.128144
   6 C :   -0.073867    0.003409
   7 S :   -0.008278    0.126053
   8 C :   -0.059920    0.003995
   9 C :    0.304048    0.003986
  10 C :    0.300977    0.003949
  11 C :    0.328877    0.000371
  12 H :   -0.421686    0.004740
  13 C :    0.332553    0.000426
  14 H :   -0.420602    0.004713
  15 H :   -0.418478    0.000460
  16 H :   -0.419184    0.000462
  17 C :    0.297975    0.004123
  18 C :    0.296810    0.004113
  19 C :    0.339263    0.000992
  20 H :   -0.396766    0.004337
  21 C :    0.337815    0.000951
  22 H :   -0.397832    0.004352
  23 H :   -0.419357    0.000700
  24 H :   -0.418976    0.000696

  Mayer bond orders larger than 0.100000
B(  0-Cu,  1-S ) :   0.6967 B(  0-Cu,  3-S ) :   0.6955 B(  0-Cu,  5-S ) :   0.6968
B(  0-Cu,  7-S ) :   0.6959 B(  1-S ,  2-C ) :   1.1287 B(  2-C ,  6-C ) :   1.2186
B(  2-C , 17-C ) :   1.4176 B(  3-S ,  4-C ) :   1.1526 B(  4-C ,  8-C ) :   1.2296
B(  4-C , 10-C ) :   1.3806 B(  5-S ,  6-C ) :   1.1309 B(  6-C , 18-C ) :   1.4165
B(  7-S ,  8-C ) :   1.1497 B(  8-C ,  9-C ) :   1.3830 B(  9-C , 13-C ) :   1.2863
B(  9-C , 14-H ) :   0.9699 B( 10-C , 11-C ) :   1.2908 B( 10-C , 12-H ) :   0.9706
B( 11-C , 13-C ) :   1.4059 B( 11-C , 15-H ) :   0.9839 B( 13-C , 16-H ) :   0.9844
B( 17-C , 19-C ) :   1.2391 B( 17-C , 20-H ) :   0.9629 B( 18-C , 21-C ) :   1.2415
B( 18-C , 22-H ) :   0.9633 B( 19-C , 21-C ) :   1.4511 B( 19-C , 23-H ) :   0.9810
B( 21-C , 24-H ) :   0.9808

FINAL SINGLE POINT ENERGY     -3686.821887477526

DIPOLE MOMENT
-------------
                                X             Y             Z
Electronic contribution:     -0.00384       0.13086       0.00000
Nuclear contribution   :     -0.00496      -0.22623       0.00000
                        -----------------------------------------
Total Dipole Moment    :     -0.00881      -0.09538       0.00000
                        -----------------------------------------
Magnitude (a.u.)       :      0.09578
Magnitude (Debye)      :      0.24346

Rotational constants in cm-1:     0.033444     0.004799     0.004197
Rotational constants in MHz :  1002.612472   143.879940   125.823617

                             ****ORCA TERMINATED NORMALLY****
TOTAL RUN TIME: 0 days 6 hours 49 minutes 34 seconds 331 msec
