                         Program Version 5.0.4 -  RELEASE  -
|  1> ! RIJCOSX nofrozencore ReducedPop printbasis
|  2> ! M06L ano-rcc-dzp autoaux
|  3>
|  4> %maxcore 5000
|  5> %basis
|  6> PCDTrimBas overlap
|  7> PCDTrimAuxJ Coulomb
|  8> PCDTrimAuxJK Coulomb
|  9> PCDTrimAuxC Coulomb
| 10> PCDThresh -1
| 11> end
| 12>
| 13> %basis
| 14> newgto Cu "ano-rcc-tzp" end
| 15> newgto S "ano-rcc-tzp" end
| 16> end
| 17>
| 18> %pal
| 19> nprocs 12
| 20> end
| 21>
| 22> % sym SymThresh 1e-2 end
| 23> * xyz -2 2
| 24> Cu 0.0 0.0 0.0
| 25> S 0.8238286822304979 -1.9347370971586544 -0.9748164564462707
| 26> C 0.7673693526597791 -1.6205897557458788 -2.6878015896347374
| 27> S 0.27217299282682544 -0.8777242158749686 2.127837021829529
| 28> C -0.28145299431359594 0.3828152991825867 3.1958829428676916
| 29> S -0.27262951667444263 0.8775389823827713 -2.127855008767155
| 30> C 0.2779248891220715 -0.38424681968009544 -3.196021949424192
| 31> S -0.8233740104066033 1.9349215791965224 0.9748343704145757
| 32> C -0.76382365324289 1.622028415059517 2.6879412893997876
| 33> C -1.1929912251055896 2.5950059747136436 3.6019462921853176
| 34> C -0.2615161236667598 0.19469403952611847 4.585302170602098
| 35> C -0.6901112506235085 1.1744559558072432 5.472360016988716
| 36> H 0.1212997765563195 -0.7479110238458926 4.963331276711456
| 37> C -1.1659257854032024 2.38542885336063 4.9752055938035875
| 38> H -1.572258338824513 3.5310218244838074 3.2044714288148715
| 39> H -0.6721044270039089 0.9828990190859153 6.5414288235409765
| 40> H -1.4937639357347448 3.171112828874142 5.649850855245833
| 41> C 1.2310936693309726 -2.5795456110046473 -3.6004441244060237
| 42> C 0.22336274878900578 -0.21017506822917278 -4.5868063450377194
| 43> C 1.120604912887824 -2.4038176922553998 -4.976991226057726
| 44> H 1.2888801890317765 -3.646001851425441 -3.2156364646207547
| 45> C 0.7354589774828645 -1.1560562208246972 -5.470573326679423
| 46> H 0.1623507865548573 0.8630011965108819 -4.952156447869131
| 47> H 1.8210270527655006 -3.038327586309724 -5.63695641805678
| 48> H 0.3446975303618028 -1.1157446159670963 -6.554328238662137
| 49> *
| 50>
| 51> % eprnmr
| 52> gtensor true
| 53> Nuclei = all H {aiso,adip,aorb,fgrad,rho}
| 54> Nuclei = all Cu {aiso,adip,aorb,fgrad,rho}
| 55> end
| 56>
| 57>                          ****END OF INPUT****

CARTESIAN COORDINATES (ANGSTROEM)
---------------------------------
  Cu     0.000000    0.000000    0.000000
  S      0.598511   -1.500646   -1.661931
  C      0.266884   -0.659826   -3.151642
  S      0.598054   -1.500828    1.661931
  C      0.263336   -0.661240    3.151642
  S     -0.598511    1.500646   -1.661931
  C     -0.266884    0.659826   -3.151642
  S     -0.598054    1.500828    1.661931
  C     -0.263336    0.661240    3.151642
  C     -0.508620    1.280757    4.385461
  C      0.508620   -1.280757    4.385461
  C      0.259587   -0.646234    5.596188
  H      0.923477   -2.283624    4.375043
  C     -0.259587    0.646234    5.596188
  H     -0.923477    2.283624    4.375043
  H      0.449714   -1.167192    6.530201
  H     -0.449714    1.167192    6.530201
  C      0.546869   -1.265512   -4.385460
  C     -0.546869    1.265512   -4.385460
  C      0.214109   -0.664360   -5.596188
  H      0.639067   -2.396980   -4.375043
  C     -0.214109    0.664360   -5.596188
  H     -0.639067    2.396980   -4.375043
  H      0.778082   -1.036315   -6.530201
  H     -0.778082    1.036315   -6.530201

 Total Charge           Charge          ....   -2
 Multiplicity           Mult            ....    2
 Number of Electrons    NEL             ....  175
 Basis Dimension        Dim             ....  475

ORBITAL ENERGIES
----------------
                 SPIN UP ORBITALS
  NO   OCC          E(Eh)            E(eV)    Irrep
   0   1.0000    -318.183708     -8658.2189    1-A
   1   1.0000     -88.017813     -2395.0865    1-B
   2   1.0000     -88.017803     -2395.0862    2-A
   3   1.0000     -88.016225     -2395.0432    2-B
   4   1.0000     -88.016214     -2395.0429    3-A
   5   1.0000     -38.028950     -1034.8203    4-A
   6   1.0000     -33.532075      -912.4541    3-B
   7   1.0000     -33.531228      -912.4311    5-A
   8   1.0000     -33.517489      -912.0573    4-B
   9   1.0000      -9.836218      -267.6571    6-A
  10   1.0000      -9.835888      -267.6481    5-B
  11   1.0000      -9.834134      -267.6004    7-A
  12   1.0000      -9.833803      -267.5914    6-B
  13   1.0000      -9.828681      -267.4520    8-A
  14   1.0000      -9.828260      -267.4405    7-B
  15   1.0000      -9.825132      -267.3554    9-A
  16   1.0000      -9.824701      -267.3437    8-B
  17   1.0000      -9.821437      -267.2549    9-B
  18   1.0000      -9.821433      -267.2548   10-A
  19   1.0000      -9.817880      -267.1581   10-B
  20   1.0000      -9.817875      -267.1580   11-A
  21   1.0000      -7.586467      -206.4383   11-B
  22   1.0000      -7.586458      -206.4380   12-A
  23   1.0000      -7.584936      -206.3966   12-B
  24   1.0000      -7.584926      -206.3963   13-A
  25   1.0000      -5.509654      -149.9253   13-B
  26   1.0000      -5.509653      -149.9253   14-A
  27   1.0000      -5.508132      -149.8839   14-B
  28   1.0000      -5.508131      -149.8839   15-A
  29   1.0000      -5.504312      -149.7800   15-B
  30   1.0000      -5.504312      -149.7799   16-A
  31   1.0000      -5.502855      -149.7403   16-B
  32   1.0000      -5.502855      -149.7403   17-A
  33   1.0000      -5.502625      -149.7340   18-A
  34   1.0000      -5.502625      -149.7340   17-B
  35   1.0000      -5.500995      -149.6897   19-A
  36   1.0000      -5.500995      -149.6897   18-B
  37   1.0000      -4.026576      -109.5687   20-A
  38   1.0000      -2.548002       -69.3347   19-B
  39   1.0000      -2.546446       -69.2923   21-A
  40   1.0000      -2.519099       -68.5482   20-B
  41   1.0000      -0.591242       -16.0885   22-A
  42   1.0000      -0.590952       -16.0806   23-A
  43   1.0000      -0.505913       -13.7666   24-A
  44   1.0000      -0.504378       -13.7248   25-A
  45   1.0000      -0.491479       -13.3738   21-B
  46   1.0000      -0.489675       -13.3247   22-B
  47   1.0000      -0.411015       -11.1843   23-B
  48   1.0000      -0.408134       -11.1059   24-B
  49   1.0000      -0.388807       -10.5800   26-A
  50   1.0000      -0.381709       -10.3868   27-A
  51   1.0000      -0.322591        -8.7781   28-A
  52   1.0000      -0.316960        -8.6249   29-A
  53   1.0000      -0.300372        -8.1735   25-B
  54   1.0000      -0.293338        -7.9821   26-B
  55   1.0000      -0.232361        -6.3229   30-A
  56   1.0000      -0.216565        -5.8930   31-A
  57   1.0000      -0.191308        -5.2057   32-A
  58   1.0000      -0.190005        -5.1703   33-A
  59   1.0000      -0.177948        -4.8422   27-B
  60   1.0000      -0.172792        -4.7019   28-B
  61   1.0000      -0.146857        -3.9962   29-B
  62   1.0000      -0.135577        -3.6892   30-B
  63   1.0000      -0.131077        -3.5668   34-A
  64   1.0000      -0.118462        -3.2235   31-B
  65   1.0000      -0.113421        -3.0863   32-B
  66   1.0000      -0.112374        -3.0578   35-A
  67   1.0000      -0.086893        -2.3645   36-A
  68   1.0000      -0.070343        -1.9141   33-B
  69   1.0000      -0.066641        -1.8134   34-B
  70   1.0000      -0.064593        -1.7577   37-A
  71   1.0000      -0.039992        -1.0882   35-B
  72   1.0000      -0.038113        -1.0371   36-B
  73   1.0000      -0.032768        -0.8917   38-A
  74   1.0000      -0.031641        -0.8610   37-B
  75   1.0000      -0.026862        -0.7310   39-A
  76   1.0000      -0.018357        -0.4995   40-A
  77   1.0000      -0.004715        -0.1283   41-A
  78   1.0000      -0.002089        -0.0568   42-A
  79   1.0000      -0.000913        -0.0249   38-B
  80   1.0000       0.016168         0.4399   43-A
  81   1.0000       0.016906         0.4600   44-A
  82   1.0000       0.032497         0.8843   39-B
  83   1.0000       0.047805         1.3008   45-A
  84   1.0000       0.050123         1.3639   46-A
  85   1.0000       0.059771         1.6264   40-B
  86   1.0000       0.084755         2.3063   41-B
  87   1.0000       0.102826         2.7981   42-B
  88   0.0000       0.180576         4.9137   47-A
  89   0.0000       0.181483         4.9384   48-A
  90   0.0000       0.188945         5.1414   43-B
  91   0.0000       0.192775         5.2457   49-A
  92   0.0000       0.196040         5.3345   44-B

                 SPIN DOWN ORBITALS
  NO   OCC          E(Eh)            E(eV)    Irrep
   0   1.0000    -318.183535     -8658.2142    1-A
   1   1.0000     -88.016746     -2395.0574    1-B
   2   1.0000     -88.016736     -2395.0572    2-A
   3   1.0000     -88.015150     -2395.0140    2-B
   4   1.0000     -88.015139     -2395.0137    3-A
   5   1.0000     -38.013107     -1034.3892    4-A
   6   1.0000     -33.516938      -912.0423    3-B
   7   1.0000     -33.516125      -912.0201    5-A
   8   1.0000     -33.513176      -911.9399    4-B
   9   1.0000      -9.836327      -267.6601    6-A
  10   1.0000      -9.835996      -267.6511    5-B
  11   1.0000      -9.834248      -267.6035    7-A
  12   1.0000      -9.833917      -267.5945    6-B
  13   1.0000      -9.828663      -267.4515    8-A
  14   1.0000      -9.828242      -267.4401    7-B
  15   1.0000      -9.825109      -267.3548    9-A
  16   1.0000      -9.824679      -267.3431    8-B
  17   1.0000      -9.821384      -267.2535    9-B
  18   1.0000      -9.821381      -267.2534   10-A
  19   1.0000      -9.817821      -267.1565   10-B
  20   1.0000      -9.817817      -267.1564   11-A
  21   1.0000      -7.585732      -206.4183   11-B
  22   1.0000      -7.585723      -206.4180   12-A
  23   1.0000      -7.584196      -206.3765   12-B
  24   1.0000      -7.584186      -206.3762   13-A
  25   1.0000      -5.508724      -149.9000   13-B
  26   1.0000      -5.508724      -149.9000   14-A
  27   1.0000      -5.507194      -149.8584   14-B
  28   1.0000      -5.507194      -149.8584   15-A
  29   1.0000      -5.502084      -149.7193   15-B
  30   1.0000      -5.502083      -149.7193   16-A
  31   1.0000      -5.501791      -149.7113   17-A
  32   1.0000      -5.501791      -149.7113   16-B
  33   1.0000      -5.500592      -149.6787   17-B
  34   1.0000      -5.500592      -149.6787   18-A
  35   1.0000      -5.500175      -149.6674   19-A
  36   1.0000      -5.500175      -149.6674   18-B
  37   1.0000      -3.992908      -108.6526   20-A
  38   1.0000      -2.507396       -68.2297   19-B
  39   1.0000      -2.506043       -68.1929   20-B
  40   1.0000      -2.504433       -68.1491   21-A
  41   1.0000      -0.590863       -16.0782   22-A
  42   1.0000      -0.590589       -16.0707   23-A
  43   1.0000      -0.504589       -13.7306   24-A
  44   1.0000      -0.503094       -13.6899   25-A
  45   1.0000      -0.490433       -13.3454   21-B
  46   1.0000      -0.488566       -13.2945   22-B
  47   1.0000      -0.407039       -11.0761   23-B
  48   1.0000      -0.404070       -10.9953   24-B
  49   1.0000      -0.385570       -10.4919   26-A
  50   1.0000      -0.378485       -10.2991   27-A
  51   1.0000      -0.321297        -8.7429   28-A
  52   1.0000      -0.315599        -8.5879   29-A
  53   1.0000      -0.298472        -8.1218   25-B
  54   1.0000      -0.291218        -7.9244   26-B
  55   1.0000      -0.231735        -6.3058   30-A
  56   1.0000      -0.215918        -5.8754   31-A
  57   1.0000      -0.190334        -5.1792   32-A
  58   1.0000      -0.189100        -5.1457   33-A
  59   1.0000      -0.177346        -4.8258   27-B
  60   1.0000      -0.172059        -4.6820   28-B
  61   1.0000      -0.145866        -3.9692   29-B
  62   1.0000      -0.134392        -3.6570   30-B
  63   1.0000      -0.129802        -3.5321   34-A
  64   1.0000      -0.118275        -3.2184   31-B
  65   1.0000      -0.112780        -3.0689   32-B
  66   1.0000      -0.111447        -3.0326   35-A
  67   1.0000      -0.085594        -2.3291   36-A
  68   1.0000      -0.068734        -1.8703   33-B
  69   1.0000      -0.062977        -1.7137   37-A
  70   1.0000      -0.053238        -1.4487   34-B
  71   1.0000      -0.038277        -1.0416   35-B
  72   1.0000      -0.034384        -0.9356   36-B
  73   1.0000      -0.026705        -0.7267   38-A
  74   1.0000      -0.023309        -0.6343   39-A
  75   1.0000      -0.016339        -0.4446   40-A
  76   1.0000      -0.004874        -0.1326   37-B
  77   1.0000       0.004906         0.1335   41-A
  78   1.0000       0.008281         0.2253   42-A
  79   1.0000       0.011286         0.3071   38-B
  80   1.0000       0.023679         0.6444   43-A
  81   1.0000       0.031769         0.8645   44-A
  82   1.0000       0.040800         1.1102   39-B
  83   1.0000       0.050633         1.3778   45-A
  84   1.0000       0.055600         1.5130   46-A
  85   1.0000       0.061637         1.6772   40-B
  86   1.0000       0.088926         2.4198   41-B
  87   0.0000       0.135770         3.6945   42-B
  88   0.0000       0.181692         4.9441   47-A
  89   0.0000       0.182378         4.9628   48-A
  90   0.0000       0.189055         5.1444   43-B
  91   0.0000       0.193167         5.2563   49-A

MULLIKEN ATOMIC CHARGES AND SPIN POPULATIONS
--------------------------------------------
   0 Cu:    0.140914    0.375267
   1 S :   -0.409843    0.162475
   2 C :    0.049722   -0.007534
   3 S :   -0.422836    0.163865
   4 C :    0.022850   -0.007421
   5 S :   -0.409843    0.162475
   6 C :    0.049722   -0.007534
   7 S :   -0.422836    0.163865
   8 C :    0.022850   -0.007421
   9 C :   -0.091167   -0.001626
  10 C :   -0.091167   -0.001626
  11 C :   -0.138075   -0.000864
  12 H :    0.065282    0.002034
  13 C :   -0.138075   -0.000864
  14 H :    0.065282    0.002034
  15 H :    0.031822    0.001090
  16 H :    0.031822    0.001090
  17 C :   -0.081763   -0.001337
  18 C :   -0.081763   -0.001337
  19 C :   -0.124702   -0.001142
  20 H :    0.032758    0.001614
  21 C :   -0.124702   -0.001142
  22 H :    0.032758    0.001614
  23 H :   -0.004506    0.001214
  24 H :   -0.004506    0.001214
Sum of atomic charges         :   -2.0000000

LOEWDIN ATOMIC CHARGES AND SPIN POPULATIONS
-------------------------------------------
   0 Cu:   -0.892951    0.441856
   1 S :    0.011995    0.123970
   2 C :   -0.044840    0.005407
   3 S :    0.010125    0.124843
   4 C :   -0.038185    0.005193
   5 S :    0.011995    0.123970
   6 C :   -0.044840    0.005407
   7 S :    0.010125    0.124843
   8 C :   -0.038185    0.005193
   9 C :    0.306877    0.003897
  10 C :    0.306877    0.003897
  11 C :    0.312166   -0.000122
  12 H :   -0.446769    0.006288
  13 C :    0.312166   -0.000122
  14 H :   -0.446769    0.006288
  15 H :   -0.417789    0.000203
  16 H :   -0.417789    0.000203
  17 C :    0.272893    0.003602
  18 C :    0.272893    0.003602
  19 C :    0.262321   -0.000458
  20 H :   -0.409373    0.005970
  21 C :    0.262321   -0.000458
  22 H :   -0.409373    0.005970
  23 H :   -0.372946    0.000279
  24 H :   -0.372946    0.000279

  Mayer bond orders larger than 0.100000
B(  0-Cu,  1-S ) :   0.6986 B(  0-Cu,  3-S ) :   0.7033 B(  0-Cu,  5-S ) :   0.6986
B(  0-Cu,  7-S ) :   0.7033 B(  1-S ,  2-C ) :   1.1891 B(  2-C ,  6-C ) :   1.2301
B(  2-C , 17-C ) :   1.3192 B(  3-S ,  4-C ) :   1.1845 B(  4-C ,  8-C ) :   1.2450
B(  4-C , 10-C ) :   1.3180 B(  5-S ,  6-C ) :   1.1891 B(  6-C , 18-C ) :   1.3192
B(  7-S ,  8-C ) :   1.1845 B(  8-C ,  9-C ) :   1.3180 B(  9-C , 13-C ) :   1.3624
B(  9-C , 14-H ) :   0.9695 B( 10-C , 11-C ) :   1.3624 B( 10-C , 12-H ) :   0.9695
B( 11-C , 13-C ) :   1.3394 B( 11-C , 15-H ) :   0.9883 B( 13-C , 16-H ) :   0.9883
B( 17-C , 19-C ) :   1.3437 B( 17-C , 20-H ) :   0.9905 B( 18-C , 21-C ) :   1.3437
B( 18-C , 22-H ) :   0.9905 B( 19-C , 21-C ) :   1.3260 B( 19-C , 23-H ) :   1.0045
B( 21-C , 24-H ) :   1.0045

FINAL SINGLE POINT ENERGY     -3686.894405193973

DIPOLE MOMENT
-------------
                                X             Y             Z
Electronic contribution:      0.00000      -0.00000       0.34120
Nuclear contribution   :     -0.00000       0.00000      -0.00000
                        -----------------------------------------
Total Dipole Moment    :      0.00000      -0.00000       0.34120
                        -----------------------------------------
Magnitude (a.u.)       :      0.34120
Magnitude (Debye)      :      0.86726

Rotational constants in cm-1:     0.033390     0.004803     0.004200
Rotational constants in MHz :  1001.003983   143.997872   125.919615

                             ****ORCA TERMINATED NORMALLY****
TOTAL RUN TIME: 0 days 7 hours 3 minutes 18 seconds 950 msec
