                         Program Version 5.0.4 -  RELEASE  -
|  1> ! RIJCOSX nofrozencore ReducedPop printbasis
|  2> ! M06L ano-rcc-dzp autoaux
|  3>
|  4> %maxcore 5000
|  5> %basis
|  6> PCDTrimBas overlap
|  7> PCDTrimAuxJ Coulomb
|  8> PCDTrimAuxJK Coulomb
|  9> PCDTrimAuxC Coulomb
| 10> PCDThresh -1
| 11> end
| 12>
| 13> %basis
| 14> newgto Cu "ano-rcc-tzp" end
| 15> newgto S "ano-rcc-tzp" end
| 16> end
| 17>
| 18> %pal
| 19> nprocs 12
| 20> end
| 21>
| 22> % sym SymThresh 1e-2 end
| 23> * xyz -2 2
| 24> Cu -4.144108221730129e-07 6.422776183787783e-07 -6.44781460182884e-07
| 25> S 2.0165105035272988 1.1075728473811446 -0.287930929399928
| 26> C 2.8201134085919786 0.22618979739551812 -1.5606184948580186
| 27> S -0.5611949901061419 1.3492037140841018 1.800187656000183
| 28> C -2.1790501737647734 0.8562485079706448 2.226726906971925
| 29> S 0.6121484583356026 -1.428174316374246 -1.7209091963448566
| 30> C 2.164803972930932 -0.8341689302836375 -2.248892559228632
| 31> S -2.067464386167581 -1.0286016028133818 0.20865182496314147
| 32> C -2.8058659645256703 -0.24827130191538052 1.5827860814591062
| 33> C -4.047687703509834 -0.6886314837444342 2.0695849403185247
| 34> C -2.8887448175764407 1.534622759369156 3.2312916771931097
| 35> C -4.13890484752557 1.1109084641307359 3.6663160300346496
| 36> H -2.4254323711507997 2.410946900545216 3.6804619904865508
| 37> C -4.712533284652115 -0.03133897899758073 3.0979945788931493
| 38> H -4.494526668428401 -1.566958296834098 1.6078149155505053
| 39> H -4.653263795554389 1.6617874870881242 4.450771248832511
| 40> H -5.675496064690227 -0.40203096058446924 3.442509810842996
| 41> C 4.129821479976543 0.5613347253472619 -1.941791229667771
| 42> C 2.8066160140395975 -1.4073337083034043 -3.3590776504663418
| 43> C 4.7660805502175565 -0.05165163890599635 -3.014680432078538
| 44> H 4.643838058835693 1.335546955487461 -1.3755014450095326
| 45> C 4.085355095495196 -1.0279139925614484 -3.7496340455380217
| 46> H 2.2761217715882007 -2.179535655653607 -3.9127760653958705
| 47> H 5.779626765574783 0.24064469696035817 -3.280493171028624
| 48> H 4.549131094523431 -1.500395206763125 -4.612791466177427
| 49> *
| 50>
| 51> % eprnmr
| 52> gtensor true
| 53> Nuclei = all H {aiso,adip,aorb,fgrad,rho}
| 54> Nuclei = all Cu {aiso,adip,aorb,fgrad,rho}
| 55> end
| 56>
| 57>                          ****END OF INPUT****

CARTESIAN COORDINATES (ANGSTROEM)
---------------------------------
  Cu     0.000000    0.000000    0.000000
  S      1.661932    1.615597   -0.061477
  C      3.151643    0.711747    0.017189
  S     -1.661932    1.615597    0.061477
  C     -3.151643    0.711747   -0.017189
  S      1.661932   -1.615597    0.061477
  C      3.151643   -0.711747   -0.017189
  S     -1.661932   -1.615597   -0.061477
  C     -3.151643   -0.711747    0.017189
  C     -4.385461   -1.378053    0.099095
  C     -4.385461    1.378053   -0.099095
  C     -5.596189    0.696420   -0.064608
  H     -4.375044    2.463249   -0.180149
  C     -5.596189   -0.696420    0.064608
  H     -4.375044   -2.463249    0.180149
  H     -6.530202    1.250749   -0.125638
  H     -6.530202   -1.250749    0.125638
  C      4.385461    1.378053    0.099095
  C      4.385461   -1.378053   -0.099095
  C      5.596189    0.696420    0.064608
  H      4.375044    2.463249    0.180149
  C      5.596189   -0.696420   -0.064608
  H      4.375044   -2.463249   -0.180149
  H      6.530202    1.250749    0.125638
  H      6.530202   -1.250749   -0.125638

 Total Charge           Charge          ....   -2
 Multiplicity           Mult            ....    2
 Number of Electrons    NEL             ....  175
 Basis Dimension        Dim             ....  475

ORBITAL ENERGIES
----------------
                 SPIN UP ORBITALS
  NO   OCC          E(Eh)            E(eV)    Irrep
   0   1.0000    -318.181135     -8658.1488    1-A
   1   1.0000     -88.014569     -2394.9982    1-B2
   2   1.0000     -88.014557     -2394.9978    1-B1
   3   1.0000     -88.014553     -2394.9977    1-B3
   4   1.0000     -88.014520     -2394.9968    2-A
   5   1.0000     -38.026289     -1034.7479    3-A
   6   1.0000     -33.529418      -912.3818    2-B3
   7   1.0000     -33.528587      -912.3592    2-B2
   8   1.0000     -33.514849      -911.9854    2-B1
   9   1.0000      -9.833053      -267.5710    3-B2
  10   1.0000      -9.833047      -267.5708    4-A
  11   1.0000      -9.832722      -267.5620    3-B1
  12   1.0000      -9.832720      -267.5619    3-B3
  13   1.0000      -9.824659      -267.3426    4-B2
  14   1.0000      -9.824659      -267.3426    5-A
  15   1.0000      -9.824251      -267.3315    4-B1
  16   1.0000      -9.824251      -267.3315    4-B3
  17   1.0000      -9.817305      -267.1425    5-B1
  18   1.0000      -9.817305      -267.1424    5-B3
  19   1.0000      -9.817301      -267.1423    5-B2
  20   1.0000      -9.817300      -267.1423    6-A
  21   1.0000      -7.583202      -206.3494    6-B1
  22   1.0000      -7.583202      -206.3494    6-B3
  23   1.0000      -7.583198      -206.3493    6-B2
  24   1.0000      -7.583187      -206.3490    7-A
  25   1.0000      -5.506420      -149.8373    7-B1
  26   1.0000      -5.506420      -149.8373    7-B3
  27   1.0000      -5.506420      -149.8373    7-B2
  28   1.0000      -5.506420      -149.8373    8-A
  29   1.0000      -5.501123      -149.6932    8-B1
  30   1.0000      -5.501123      -149.6932    8-B3
  31   1.0000      -5.501123      -149.6932    8-B2
  32   1.0000      -5.501122      -149.6931    9-A
  33   1.0000      -5.499250      -149.6422   10-A
  34   1.0000      -5.499250      -149.6422    9-B2
  35   1.0000      -5.499250      -149.6422    9-B3
  36   1.0000      -5.499250      -149.6422    9-B1
  37   1.0000      -4.023929      -109.4967   11-A
  38   1.0000      -2.545330       -69.2620   10-B3
  39   1.0000      -2.543824       -69.2210   10-B2
  40   1.0000      -2.516474       -68.4767   10-B1
  41   1.0000      -0.588687       -16.0190   12-A
  42   1.0000      -0.588569       -16.0158   11-B2
  43   1.0000      -0.503784       -13.7087   13-A
  44   1.0000      -0.502682       -13.6787   12-B2
  45   1.0000      -0.489683       -13.3249   11-B3
  46   1.0000      -0.489437       -13.3183   11-B1
  47   1.0000      -0.409690       -11.1482   12-B3
  48   1.0000      -0.407098       -11.0777   12-B1
  49   1.0000      -0.387235       -10.5372   14-A
  50   1.0000      -0.380624       -10.3573   13-B2
  51   1.0000      -0.321608        -8.7514   15-A
  52   1.0000      -0.318959        -8.6793   14-B2
  53   1.0000      -0.300083        -8.1657   13-B3
  54   1.0000      -0.296632        -8.0718   13-B1
  55   1.0000      -0.232267        -6.3203   16-A
  56   1.0000      -0.227061        -6.1786   15-B2
  57   1.0000      -0.189512        -5.1569   17-A
  58   1.0000      -0.188623        -5.1327   16-B2
  59   1.0000      -0.177654        -4.8342   14-B3
  60   1.0000      -0.174728        -4.7546   14-B1
  61   1.0000      -0.146902        -3.9974   15-B3
  62   1.0000      -0.143941        -3.9168   15-B1
  63   1.0000      -0.130568        -3.5529   18-A
  64   1.0000      -0.116653        -3.1743   16-B3
  65   1.0000      -0.116618        -3.1733   16-B1
  66   1.0000      -0.113443        -3.0869   17-B2
  67   1.0000      -0.087027        -2.3681   19-A
  68   1.0000      -0.069412        -1.8888   17-B3
  69   1.0000      -0.065128        -1.7722   17-B1
  70   1.0000      -0.062547        -1.7020   18-B2
  71   1.0000      -0.038092        -1.0365   18-B3
  72   1.0000      -0.036469        -0.9924   18-B1
  73   1.0000      -0.031475        -0.8565   19-B1
  74   1.0000      -0.029456        -0.8015   20-A
  75   1.0000      -0.025962        -0.7065   19-B2
  76   1.0000      -0.018608        -0.5063   21-A
  77   1.0000      -0.002763        -0.0752   20-B2
  78   1.0000      -0.000555        -0.0151   22-A
  79   1.0000       0.001613         0.0439   19-B3
  80   1.0000       0.018494         0.5033   23-A
  81   1.0000       0.019191         0.5222   21-B2
  82   1.0000       0.034901         0.9497   20-B3
  83   1.0000       0.049933         1.3588   24-A
  84   1.0000       0.052270         1.4223   22-B2
  85   1.0000       0.062650         1.7048   20-B1
  86   1.0000       0.087394         2.3781   21-B3
  87   1.0000       0.105352         2.8668   21-B1
  88   0.0000       0.181500         4.9389   25-A
  89   0.0000       0.181579         4.9410   23-B2
  90   0.0000       0.196683         5.3520   22-B1
  91   0.0000       0.196913         5.3583   22-B3
  92   0.0000       0.200822         5.4646   23-B1

                 SPIN DOWN ORBITALS
  NO   OCC          E(Eh)            E(eV)    Irrep
   0   1.0000    -318.180960     -8658.1441    1-A
   1   1.0000     -88.013500     -2394.9691    1-B2
   2   1.0000     -88.013488     -2394.9688    1-B1
   3   1.0000     -88.013485     -2394.9687    1-B3
   4   1.0000     -88.013451     -2394.9678    2-A
   5   1.0000     -38.010447     -1034.3168    3-A
   6   1.0000     -33.514284      -911.9700    2-B3
   7   1.0000     -33.513484      -911.9483    2-B2
   8   1.0000     -33.510530      -911.8679    2-B1
   9   1.0000      -9.833163      -267.5740    3-B2
  10   1.0000      -9.833158      -267.5738    4-A
  11   1.0000      -9.832832      -267.5650    3-B1
  12   1.0000      -9.832830      -267.5649    3-B3
  13   1.0000      -9.824638      -267.3420    4-B2
  14   1.0000      -9.824638      -267.3420    5-A
  15   1.0000      -9.824230      -267.3309    4-B1
  16   1.0000      -9.824230      -267.3309    4-B3
  17   1.0000      -9.817246      -267.1409    5-B1
  18   1.0000      -9.817246      -267.1408    5-B3
  19   1.0000      -9.817242      -267.1407    5-B2
  20   1.0000      -9.817241      -267.1407    6-A
  21   1.0000      -7.582470      -206.3295    6-B3
  22   1.0000      -7.582470      -206.3295    6-B1
  23   1.0000      -7.582467      -206.3294    6-B2
  24   1.0000      -7.582455      -206.3291    7-A
  25   1.0000      -5.505494      -149.8121    7-B1
  26   1.0000      -5.505493      -149.8121    7-B3
  27   1.0000      -5.505493      -149.8121    7-B2
  28   1.0000      -5.505493      -149.8121    8-A
  29   1.0000      -5.498889      -149.6324    8-B1
  30   1.0000      -5.498889      -149.6324    8-B3
  31   1.0000      -5.498889      -149.6324    8-B2
  32   1.0000      -5.498889      -149.6324    9-A
  33   1.0000      -5.498426      -149.6198   10-A
  34   1.0000      -5.498426      -149.6198    9-B2
  35   1.0000      -5.498426      -149.6198    9-B3
  36   1.0000      -5.498425      -149.6198    9-B1
  37   1.0000      -3.990261      -108.5805   11-A
  38   1.0000      -2.504786       -68.1587   10-B1
  39   1.0000      -2.503351       -68.1196   10-B3
  40   1.0000      -2.501820       -68.0780   10-B2
  41   1.0000      -0.588311       -16.0088   12-A
  42   1.0000      -0.588203       -16.0058   11-B2
  43   1.0000      -0.502460       -13.6726   13-A
  44   1.0000      -0.501429       -13.6446   12-B2
  45   1.0000      -0.488657       -13.2970   11-B3
  46   1.0000      -0.488437       -13.2910   11-B1
  47   1.0000      -0.405718       -11.0401   12-B3
  48   1.0000      -0.403033       -10.9671   12-B1
  49   1.0000      -0.384031       -10.4500   14-A
  50   1.0000      -0.377485       -10.2719   13-B2
  51   1.0000      -0.320407        -8.7187   15-A
  52   1.0000      -0.317445        -8.6381   14-B2
  53   1.0000      -0.298290        -8.1169   13-B3
  54   1.0000      -0.294417        -8.0115   13-B1
  55   1.0000      -0.231691        -6.3046   16-A
  56   1.0000      -0.226356        -6.1595   15-B2
  57   1.0000      -0.188542        -5.1305   17-A
  58   1.0000      -0.187739        -5.1086   16-B2
  59   1.0000      -0.177128        -4.8199   14-B3
  60   1.0000      -0.173873        -4.7313   14-B1
  61   1.0000      -0.146223        -3.9789   15-B3
  62   1.0000      -0.142452        -3.8763   15-B1
  63   1.0000      -0.129306        -3.5186   18-A
  64   1.0000      -0.116413        -3.1678   16-B3
  65   1.0000      -0.116333        -3.1656   16-B1
  66   1.0000      -0.112551        -3.0627   17-B2
  67   1.0000      -0.085603        -2.3294   19-A
  68   1.0000      -0.067951        -1.8490   17-B3
  69   1.0000      -0.060828        -1.6552   18-B2
  70   1.0000      -0.050998        -1.3877   17-B1
  71   1.0000      -0.035999        -0.9796   18-B3
  72   1.0000      -0.035472        -0.9652   18-B1
  73   1.0000      -0.023034        -0.6268   20-A
  74   1.0000      -0.022856        -0.6219   19-B2
  75   1.0000      -0.017373        -0.4728   21-A
  76   1.0000      -0.002489        -0.0677   19-B1
  77   1.0000       0.006973         0.1897   20-B2
  78   1.0000       0.010221         0.2781   22-A
  79   1.0000       0.013798         0.3755   19-B3
  80   1.0000       0.025904         0.7049   21-B2
  81   1.0000       0.034226         0.9313   23-A
  82   1.0000       0.043193         1.1753   20-B3
  83   1.0000       0.052838         1.4378   24-A
  84   1.0000       0.057902         1.5756   22-B2
  85   1.0000       0.064681         1.7601   20-B1
  86   1.0000       0.091563         2.4916   21-B3
  87   0.0000       0.138198         3.7606   21-B1
  88   0.0000       0.182626         4.9695   25-A
  89   0.0000       0.182684         4.9711   23-B2
  90   0.0000       0.198458         5.4003   22-B1
  91   0.0000       0.198795         5.4095   22-B3

MULLIKEN ATOMIC CHARGES AND SPIN POPULATIONS
--------------------------------------------
   0 Cu:    0.143283    0.374822
   1 S :   -0.424178    0.162771
   2 C :    0.023676   -0.007153
   3 S :   -0.424178    0.162771
   4 C :    0.023676   -0.007153
   5 S :   -0.424178    0.162771
   6 C :    0.023676   -0.007153
   7 S :   -0.424178    0.162771
   8 C :    0.023676   -0.007153
   9 C :   -0.089015   -0.001485
  10 C :   -0.089015   -0.001485
  11 C :   -0.138828   -0.000850
  12 H :    0.061716    0.001939
  13 C :   -0.138828   -0.000850
  14 H :    0.061716    0.001939
  15 H :    0.030807    0.001073
  16 H :    0.030807    0.001073
  17 C :   -0.089015   -0.001485
  18 C :   -0.089015   -0.001485
  19 C :   -0.138828   -0.000850
  20 H :    0.061716    0.001939
  21 C :   -0.138828   -0.000850
  22 H :    0.061716    0.001939
  23 H :    0.030807    0.001073
  24 H :    0.030807    0.001073
Sum of atomic charges         :   -2.0000000

LOEWDIN ATOMIC CHARGES AND SPIN POPULATIONS
-------------------------------------------
   0 Cu:   -0.895187    0.441457
   1 S :    0.007948    0.124264
   2 C :   -0.038280    0.005428
   3 S :    0.007948    0.124264
   4 C :   -0.038280    0.005428
   5 S :    0.007948    0.124264
   6 C :   -0.038280    0.005428
   7 S :    0.007948    0.124264
   8 C :   -0.038280    0.005428
   9 C :    0.304876    0.003872
  10 C :    0.304876    0.003872
  11 C :    0.311417   -0.000120
  12 H :   -0.443861    0.005980
  13 C :    0.311417   -0.000120
  14 H :   -0.443861    0.005980
  15 H :   -0.418304    0.000211
  16 H :   -0.418304    0.000211
  17 C :    0.304876    0.003872
  18 C :    0.304876    0.003872
  19 C :    0.311417   -0.000120
  20 H :   -0.443861    0.005980
  21 C :    0.311417   -0.000120
  22 H :   -0.443861    0.005980
  23 H :   -0.418304    0.000211
  24 H :   -0.418304    0.000211

  Mayer bond orders larger than 0.100000
B(  0-Cu,  1-S ) :   0.6997 B(  0-Cu,  3-S ) :   0.6997 B(  0-Cu,  5-S ) :   0.6997
B(  0-Cu,  7-S ) :   0.6997 B(  1-S ,  2-C ) :   1.1845 B(  2-C ,  6-C ) :   1.2446
B(  2-C , 17-C ) :   1.3156 B(  3-S ,  4-C ) :   1.1845 B(  4-C ,  8-C ) :   1.2446
B(  4-C , 10-C ) :   1.3156 B(  5-S ,  6-C ) :   1.1845 B(  6-C , 18-C ) :   1.3156
B(  7-S ,  8-C ) :   1.1845 B(  8-C ,  9-C ) :   1.3156 B(  9-C , 13-C ) :   1.3646
B(  9-C , 14-H ) :   0.9713 B( 10-C , 11-C ) :   1.3646 B( 10-C , 12-H ) :   0.9713
B( 11-C , 13-C ) :   1.3367 B( 11-C , 15-H ) :   0.9887 B( 13-C , 16-H ) :   0.9887
B( 17-C , 19-C ) :   1.3646 B( 17-C , 20-H ) :   0.9713 B( 18-C , 21-C ) :   1.3646
B( 18-C , 22-H ) :   0.9713 B( 19-C , 21-C ) :   1.3367 B( 19-C , 23-H ) :   0.9887
B( 21-C , 24-H ) :   0.9887

FINAL SINGLE POINT ENERGY     -3686.927195082037

DIPOLE MOMENT
-------------
                                X             Y             Z
Electronic contribution:      0.00000       0.00000      -0.00000
Nuclear contribution   :      0.00000      -0.00000      -0.00000
                        -----------------------------------------
Total Dipole Moment    :      0.00000       0.00000      -0.00000
                        -----------------------------------------
Magnitude (a.u.)       :      0.00000
Magnitude (Debye)      :      0.00000

Rotational constants in cm-1:     0.033333     0.004802     0.004200
Rotational constants in MHz :   999.285991   143.962194   125.919559

                             ****ORCA TERMINATED NORMALLY****
TOTAL RUN TIME: 0 days 6 hours 16 minutes 50 seconds 846 msec
