                         Program Version 5.0.4 -  RELEASE  -
|  1> ! RIJCOSX nofrozencore ReducedPop printbasis
|  2> ! M06L ano-rcc-dzp autoaux
|  3>
|  4> %maxcore 5000
|  5> %basis
|  6> PCDTrimBas overlap
|  7> PCDTrimAuxJ Coulomb
|  8> PCDTrimAuxJK Coulomb
|  9> PCDTrimAuxC Coulomb
| 10> PCDThresh -1
| 11> end
| 12>
| 13> %basis
| 14> newgto Cu "ano-rcc-tzp" end
| 15> newgto S "ano-rcc-tzp" end
| 16> end
| 17>
| 18> %pal
| 19> nprocs 12
| 20> end
| 21>
| 22> % sym SymThresh 1e-2 end
| 23> * xyz -2 2
| 24> Cu -0.00013849391925313285 0.0005115137892585572 -4.482273673325924e-05
| 25> S -0.11913551434413461 1.6424363916951248 1.6303960436591647
| 26> C 0.3476658082888377 0.8177327146324094 3.0298099799272524
| 27> S -0.6802800095558204 1.4892633969247373 -1.640481712653916
| 28> C -0.700040459439079 0.5360813288609041 -3.071188804898854
| 29> S 0.6802887368069865 -1.488283823048802 1.6418889197661322
| 30> C 0.7257521728951445 -0.5590062700899863 3.179499649571935
| 31> S 0.1186242638855089 -1.641725848436238 -1.632196162334643
| 32> C -0.3611200948762942 -0.8380102369161501 -3.131281815682082
| 33> C -0.3854810825569604 -1.5472283161667912 -4.24844150107547
| 34> C -1.091320477619571 1.1233238672388923 -4.38860137362744
| 35> C -1.1141865780242715 0.43476140430545596 -5.4689439457772755
| 36> H -1.3314792244320035 2.178465548017139 -4.232951675796257
| 37> C -0.7886801643518068 -0.9050653352480612 -5.55458448783816
| 38> H -0.13833958139815558 -2.609173485051471 -4.375477930387942
| 39> H -1.3967663648189714 0.8479230679394719 -6.435556358158905
| 40> H -0.7716936664589219 -1.5878997176293284 -6.409777227709313
| 41> C 0.4328302171875017 1.5196825460061325 4.468264033498775
| 42> C 1.0601793781159876 -1.1609266216190897 4.1666879166543875
| 43> C 0.739833721888226 0.9843482943971923 5.398412455655028
| 44> H 0.1078239691008896 2.545738032340727 4.121117780274945
| 45> C 1.12394116884035 -0.36521470458401656 5.618637536153974
| 46> H 1.3873453123828383 -2.2059453174725188 4.499283774064093
| 47> H 0.8425697096210004 1.3400868453036663 6.452093466949022
| 48> H 1.451865443487421 -1.0775081869947485 6.417187119299808
| 49> *
| 50>
| 51> % eprnmr
| 52> gtensor true
| 53> Nuclei = all H {aiso,adip,aorb,fgrad,rho}
| 54> Nuclei = all Cu {aiso,adip,aorb,fgrad,rho}
| 55> end
| 56>
| 57>                          ****END OF INPUT****

CARTESIAN COORDINATES (ANGSTROEM)
---------------------------------
  Cu     0.000529   -0.000057    0.000000
  S      1.657519    1.619449    0.000000
  C      0.775009    3.060828    0.000000
  S      1.573572   -1.701687    0.000000
  C      0.622610   -3.134007    0.000000
  S     -1.572593    1.703095    0.000000
  C     -0.648714    3.244625    0.000000
  S     -1.656745   -1.621295    0.000000
  C     -0.793630   -3.163502    0.000000
  C     -1.500004   -4.282727    0.000000
  C      1.258283   -4.486578    0.000000
  C      0.572384   -5.568856    0.000000
  H      2.343309   -4.352623    0.000000
  C     -0.807927   -5.625106    0.000000
  H     -2.592698   -4.387442    0.000000
  H      1.020520   -6.560858    0.000000
  H     -1.493015   -6.478664    0.000000
  C      1.466608    4.506797    0.000000
  C     -1.292051    4.261880    0.000000
  C      0.893257    5.464544    0.000000
  H      2.533014    4.130358    0.000000
  C     -0.504026    5.719412    0.000000
  H     -2.377691    4.623966    0.000000
  H      1.236397    6.527372    0.000000
  H     -1.256958    6.547464    0.000000

 Total Charge           Charge          ....   -2
 Multiplicity           Mult            ....    2
 Number of Electrons    NEL             ....  175
 Basis Dimension        Dim             ....  475

ORBITAL ENERGIES
----------------
                 SPIN UP ORBITALS
  NO   OCC          E(Eh)            E(eV)    Irrep
   0   1.0000    -318.184600     -8658.2432    1-A'
   1   1.0000     -88.039417     -2395.6743    2-A'
   2   1.0000     -88.026003     -2395.3093    3-A'
   3   1.0000     -88.009357     -2394.8564    4-A'
   4   1.0000     -88.001379     -2394.6393    5-A'
   5   1.0000     -38.029508     -1034.8355    6-A'
   6   1.0000     -33.532581      -912.4679    7-A'
   7   1.0000     -33.531688      -912.4436    8-A'
   8   1.0000     -33.518365      -912.0811    1-A"
   9   1.0000      -9.854046      -268.1422    9-A'
  10   1.0000      -9.843473      -267.8545   10-A'
  11   1.0000      -9.827776      -267.4274   11-A'
  12   1.0000      -9.826753      -267.3995   12-A'
  13   1.0000      -9.826427      -267.3907   13-A'
  14   1.0000      -9.821313      -267.2515   14-A'
  15   1.0000      -9.820751      -267.2362   15-A'
  16   1.0000      -9.816924      -267.1321   16-A'
  17   1.0000      -9.815502      -267.0934   17-A'
  18   1.0000      -9.814083      -267.0548   18-A'
  19   1.0000      -9.810889      -266.9679   19-A'
  20   1.0000      -9.803372      -266.7633   20-A'
  21   1.0000      -7.607996      -207.0241   21-A'
  22   1.0000      -7.594834      -206.6660   22-A'
  23   1.0000      -7.577930      -206.2060   23-A'
  24   1.0000      -7.570161      -205.9945   24-A'
  25   1.0000      -5.530818      -150.5012   25-A'
  26   1.0000      -5.525154      -150.3471   26-A'
  27   1.0000      -5.525099      -150.3456    2-A"
  28   1.0000      -5.517879      -150.1491   27-A'
  29   1.0000      -5.512356      -149.9988   28-A'
  30   1.0000      -5.511310      -149.9704    3-A"
  31   1.0000      -5.501279      -149.6974   29-A'
  32   1.0000      -5.496256      -149.5607   30-A'
  33   1.0000      -5.493652      -149.4899   31-A'
  34   1.0000      -5.493609      -149.4887    4-A"
  35   1.0000      -5.488645      -149.3536   32-A'
  36   1.0000      -5.485536      -149.2690    5-A"
  37   1.0000      -4.027034      -109.5812   33-A'
  38   1.0000      -2.548263       -69.3418   34-A'
  39   1.0000      -2.546673       -69.2985   35-A'
  40   1.0000      -2.520043       -68.5738    6-A"
  41   1.0000      -0.598138       -16.2762   36-A'
  42   1.0000      -0.593509       -16.1502   37-A'
  43   1.0000      -0.533371       -14.5138   38-A'
  44   1.0000      -0.515571       -14.0294   39-A'
  45   1.0000      -0.487779       -13.2731   40-A'
  46   1.0000      -0.485588       -13.2135   41-A'
  47   1.0000      -0.412998       -11.2383   42-A'
  48   1.0000      -0.410908       -11.1814   43-A'
  49   1.0000      -0.385022       -10.4770   44-A'
  50   1.0000      -0.373428       -10.1615   45-A'
  51   1.0000      -0.327784        -8.9194   46-A'
  52   1.0000      -0.324126        -8.8199   47-A'
  53   1.0000      -0.298777        -8.1301   48-A'
  54   1.0000      -0.290329        -7.9002   49-A'
  55   1.0000      -0.236640        -6.4393   50-A'
  56   1.0000      -0.231865        -6.3094   51-A'
  57   1.0000      -0.207878        -5.6566   52-A'
  58   1.0000      -0.202827        -5.5192   53-A'
  59   1.0000      -0.182581        -4.9683   54-A'
  60   1.0000      -0.177608        -4.8330   55-A'
  61   1.0000      -0.137922        -3.7530   56-A'
  62   1.0000      -0.131408        -3.5758   57-A'
  63   1.0000      -0.127501        -3.4695    7-A"
  64   1.0000      -0.120865        -3.2889    8-A"
  65   1.0000      -0.115599        -3.1456   58-A'
  66   1.0000      -0.106788        -2.9058   59-A'
  67   1.0000      -0.096781        -2.6335   60-A'
  68   1.0000      -0.084703        -2.3049   61-A'
  69   1.0000      -0.065297        -1.7768    9-A"
  70   1.0000      -0.053299        -1.4503   62-A'
  71   1.0000      -0.047229        -1.2852   10-A"
  72   1.0000      -0.038743        -1.0542   63-A'
  73   1.0000      -0.030875        -0.8401   11-A"
  74   1.0000      -0.029740        -0.8093   64-A'
  75   1.0000      -0.023032        -0.6267   12-A"
  76   1.0000      -0.008470        -0.2305   65-A'
  77   1.0000      -0.003680        -0.1001   13-A"
  78   1.0000       0.000754         0.0205   14-A"
  79   1.0000       0.005632         0.1532   66-A'
  80   1.0000       0.015558         0.4234   67-A'
  81   1.0000       0.024522         0.6673   68-A'
  82   1.0000       0.034431         0.9369   69-A'
  83   1.0000       0.050341         1.3699   15-A"
  84   1.0000       0.055444         1.5087   16-A"
  85   1.0000       0.063405         1.7253   17-A"
  86   1.0000       0.086650         2.3579   18-A"
  87   1.0000       0.102591         2.7916   70-A'
  88   0.0000       0.165774         4.5110   19-A"
  89   0.0000       0.180413         4.9093   71-A'
  90   0.0000       0.182782         4.9738   72-A'
  91   0.0000       0.184867         5.0305   20-A"
  92   0.0000       0.195392         5.3169   73-A'

                 SPIN DOWN ORBITALS
  NO   OCC          E(Eh)            E(eV)    Irrep
   0   1.0000    -318.184430     -8658.2385    1-A'
   1   1.0000     -88.038511     -2395.6497    2-A'
   2   1.0000     -88.025064     -2395.2838    3-A'
   3   1.0000     -88.008150     -2394.8235    4-A'
   4   1.0000     -88.000168     -2394.6063    5-A'
   5   1.0000     -38.014028     -1034.4143    6-A'
   6   1.0000     -33.517791      -912.0655    7-A'
   7   1.0000     -33.516929      -912.0420    8-A'
   8   1.0000     -33.514139      -911.9661    1-A"
   9   1.0000      -9.854170      -268.1456    9-A'
  10   1.0000      -9.843578      -267.8574   10-A'
  11   1.0000      -9.827736      -267.4263   11-A'
  12   1.0000      -9.826655      -267.3969   12-A'
  13   1.0000      -9.826538      -267.3937   13-A'
  14   1.0000      -9.821262      -267.2501   14-A'
  15   1.0000      -9.820728      -267.2356   15-A'
  16   1.0000      -9.816922      -267.1320   16-A'
  17   1.0000      -9.815439      -267.0917   17-A'
  18   1.0000      -9.814143      -267.0564   18-A'
  19   1.0000      -9.810843      -266.9666   19-A'
  20   1.0000      -9.803283      -266.7609   20-A'
  21   1.0000      -7.607371      -207.0071   21-A'
  22   1.0000      -7.594186      -206.6483   22-A'
  23   1.0000      -7.577107      -206.1836   23-A'
  24   1.0000      -7.569344      -205.9723   24-A'
  25   1.0000      -5.530024      -150.4796   25-A'
  26   1.0000      -5.524371      -150.3258    2-A"
  27   1.0000      -5.523291      -150.2964   26-A'
  28   1.0000      -5.517063      -150.1269   27-A'
  29   1.0000      -5.510579      -149.9505    3-A"
  30   1.0000      -5.510388      -149.9453   28-A'
  31   1.0000      -5.500214      -149.6684   29-A'
  32   1.0000      -5.493726      -149.4919   30-A'
  33   1.0000      -5.492709      -149.4642    4-A"
  34   1.0000      -5.492546      -149.4598   31-A'
  35   1.0000      -5.486145      -149.2856   32-A'
  36   1.0000      -5.484651      -149.2449    5-A"
  37   1.0000      -3.994277      -108.6898   33-A'
  38   1.0000      -2.508605       -68.2626    6-A"
  39   1.0000      -2.507475       -68.2319   34-A'
  40   1.0000      -2.505707       -68.1837   35-A'
  41   1.0000      -0.597744       -16.2654   36-A'
  42   1.0000      -0.593148       -16.1404   37-A'
  43   1.0000      -0.532500       -14.4901   38-A'
  44   1.0000      -0.514486       -13.9999   39-A'
  45   1.0000      -0.486318       -13.2334   40-A'
  46   1.0000      -0.483360       -13.1529   41-A'
  47   1.0000      -0.410479       -11.1697   42-A'
  48   1.0000      -0.408296       -11.1103   43-A'
  49   1.0000      -0.380885       -10.3644   44-A'
  50   1.0000      -0.368473       -10.0267   45-A'
  51   1.0000      -0.326384        -8.8814   46-A'
  52   1.0000      -0.322523        -8.7763   47-A'
  53   1.0000      -0.296909        -8.0793   48-A'
  54   1.0000      -0.288670        -7.8551   49-A'
  55   1.0000      -0.236000        -6.4219   50-A'
  56   1.0000      -0.231201        -6.2913   51-A'
  57   1.0000      -0.206941        -5.6312   52-A'
  58   1.0000      -0.202063        -5.4984   53-A'
  59   1.0000      -0.181955        -4.9512   54-A'
  60   1.0000      -0.176653        -4.8070   55-A'
  61   1.0000      -0.136497        -3.7143   56-A'
  62   1.0000      -0.130256        -3.5444   57-A'
  63   1.0000      -0.127368        -3.4659    7-A"
  64   1.0000      -0.120691        -3.2842    8-A"
  65   1.0000      -0.114434        -3.1139   58-A'
  66   1.0000      -0.103539        -2.8174   59-A'
  67   1.0000      -0.093799        -2.5524   60-A'
  68   1.0000      -0.081974        -2.2306   61-A'
  69   1.0000      -0.064731        -1.7614    9-A"
  70   1.0000      -0.046148        -1.2558   10-A"
  71   1.0000      -0.044485        -1.2105   62-A'
  72   1.0000      -0.027053        -0.7361   11-A"
  73   1.0000      -0.025359        -0.6901   63-A'
  74   1.0000      -0.020494        -0.5577   12-A"
  75   1.0000      -0.009143        -0.2488   64-A'
  76   1.0000       0.000139         0.0038   65-A'
  77   1.0000       0.006260         0.1704   13-A"
  78   1.0000       0.012146         0.3305   14-A"
  79   1.0000       0.015063         0.4099   66-A'
  80   1.0000       0.028385         0.7724   67-A'
  81   1.0000       0.029919         0.8141   68-A'
  82   1.0000       0.043181         1.1750   69-A'
  83   1.0000       0.053650         1.4599   15-A"
  84   1.0000       0.059421         1.6169   16-A"
  85   1.0000       0.065084         1.7710   17-A"
  86   1.0000       0.090751         2.4695   18-A"
  87   0.0000       0.134445         3.6584   70-A'
  88   0.0000       0.166119         4.5203   19-A"
  89   0.0000       0.181628         4.9423   71-A'
  90   0.0000       0.183803         5.0015   72-A'
  91   0.0000       0.185125         5.0375   20-A"

MULLIKEN ATOMIC CHARGES AND SPIN POPULATIONS
--------------------------------------------
   0 Cu:    0.135259    0.367536
   1 S :   -0.334998    0.134157
   2 C :   -0.009607   -0.008838
   3 S :   -0.401463    0.142061
   4 C :    0.012671   -0.006773
   5 S :   -0.487713    0.189320
   6 C :    0.058064   -0.008621
   7 S :   -0.440027    0.185616
   8 C :    0.044698   -0.008947
   9 C :   -0.049551   -0.001635
  10 C :   -0.138687   -0.000729
  11 C :   -0.064755   -0.000759
  12 H :    0.063319    0.002450
  13 C :   -0.194645   -0.000342
  14 H :    0.050074    0.001612
  15 H :    0.029971    0.001265
  16 H :    0.025442    0.001201
  17 C :   -0.141354    0.003681
  18 C :    0.016742   -0.002445
  19 C :    0.021614   -0.000537
  20 H :    0.044258    0.002016
  21 C :   -0.259457    0.001915
  22 H :    0.015089    0.003288
  23 H :   -0.010064    0.002245
  24 H :    0.015120    0.001260
Sum of atomic charges         :   -2.0000000

LOEWDIN ATOMIC CHARGES AND SPIN POPULATIONS
-------------------------------------------
   0 Cu:   -0.890302    0.433392
   1 S :    0.082949    0.105372
   2 C :    0.040100    0.004182
   3 S :    0.035114    0.108460
   4 C :   -0.007294    0.004447
   5 S :   -0.035038    0.141822
   6 C :   -0.114299    0.004969
   7 S :   -0.009557    0.141338
   8 C :   -0.071176    0.005556
   9 C :    0.313465    0.004684
  10 C :    0.299361    0.003462
  11 C :    0.259181   -0.000038
  12 H :   -0.451272    0.006720
  13 C :    0.346561    0.000342
  14 H :   -0.427446    0.006010
  15 H :   -0.413826    0.000422
  16 H :   -0.419201    0.000217
  17 C :    0.256231    0.004596
  18 C :    0.289194    0.005348
  19 C :    0.177681    0.000407
  20 H :   -0.434949    0.008738
  21 C :    0.385907    0.002075
  22 H :   -0.386746    0.005897
  23 H :   -0.403614    0.001230
  24 H :   -0.421023    0.000351

  Mayer bond orders larger than 0.100000
B(  0-Cu,  1-S ) :   0.6437 B(  0-Cu,  3-S ) :   0.6726 B(  0-Cu,  5-S ) :   0.7466
B(  0-Cu,  7-S ) :   0.7310 B(  1-S ,  2-C ) :   1.3279 B(  1-S , 21-C ) :   0.1002
B(  2-C ,  6-C ) :   1.1963 B(  2-C , 17-C ) :   1.1394 B(  2-C , 21-C ) :   0.1420
B(  3-S ,  4-C ) :   1.2380 B(  4-C ,  8-C ) :   1.2383 B(  4-C , 10-C ) :   1.2600
B(  5-S ,  6-C ) :   1.0601 B(  6-C , 18-C ) :   1.4746 B(  7-S ,  8-C ) :   1.1307
B(  8-C ,  9-C ) :   1.3738 B(  9-C , 13-C ) :   1.3027 B(  9-C , 14-H ) :   0.9709
B( 10-C , 11-C ) :   1.4151 B( 10-C , 12-H ) :   0.9652 B( 11-C , 13-C ) :   1.3285
B( 11-C , 15-H ) :   0.9826 B( 13-C , 16-H ) :   0.9908 B( 17-C , 19-C ) :   1.5648
B( 17-C , 20-H ) :   0.9409 B( 18-C , 21-C ) :   1.1916 B( 18-C , 22-H ) :   0.9563
B( 19-C , 21-C ) :   1.2293 B( 19-C , 23-H ) :   0.9631 B( 21-C , 24-H ) :   0.9944

FINAL SINGLE POINT ENERGY     -3686.652479972052

DIPOLE MOMENT
-------------
                                X             Y             Z
Electronic contribution:      1.05293      -0.44762      -0.00000
Nuclear contribution   :     -0.55362       0.04682       0.00000
                        -----------------------------------------
Total Dipole Moment    :      0.49931      -0.40080      -0.00000
                        -----------------------------------------
Magnitude (a.u.)       :      0.64027
Magnitude (Debye)      :      1.62744

Rotational constants in cm-1:     0.033413     0.004802     0.004198
Rotational constants in MHz :  1001.699339   143.954092   125.865916

                             ****ORCA TERMINATED NORMALLY****
TOTAL RUN TIME: 0 days 6 hours 27 minutes 39 seconds 766 msec
