                         Program Version 5.0.4 -  RELEASE  -
|  1> ! RIJCOSX nofrozencore ReducedPop printbasis
|  2> ! M06L ano-rcc-dzp autoaux
|  3>
|  4> %maxcore 5000
|  5> %basis
|  6> PCDTrimBas overlap
|  7> PCDTrimAuxJ Coulomb
|  8> PCDTrimAuxJK Coulomb
|  9> PCDTrimAuxC Coulomb
| 10> PCDThresh -1
| 11> end
| 12>
| 13> %basis
| 14> newgto Cu "ano-rcc-tzp" end
| 15> newgto S "ano-rcc-tzp" end
| 16> end
| 17>
| 18> %pal
| 19> nprocs 12
| 20> end
| 21>
| 22> % sym SymThresh 1e-2 end
| 23> * xyz -2 2
| 24> Cu -0.0002864904470939796 0.0005842374837880867 0.0001229055989809123
| 25> S 0.5438882709682714 -0.9764108367943692 -2.0311830357519884
| 26> C 0.02777844011408472 0.18738193292923028 -3.3172083343199192
| 27> S 0.8349725241825044 -1.815866534082113 1.1738808624476809
| 28> C 0.5888108736035074 -1.432497210659561 2.886226382385978
| 29> S -0.8353173636523881 1.8164308686776207 -1.1718516679758955
| 30> C -0.5614984322709983 1.3669022640797865 -2.7638937287702947
| 31> S -0.5445229502745387 0.9778669778111101 2.0292631905713656
| 32> C -0.03048316024262764 -0.17225834049240366 3.1882338189076447
| 33> C -0.19024279241237854 0.04945089374804949 4.666590378034873
| 34> C 0.9683441393819413 -2.2842581172810554 3.7769308969175297
| 35> C 0.7830568888562536 -2.0104601665839175 5.265826264514823
| 36> H 1.4492034699943384 -3.2713816827513913 3.658833207100461
| 37> C 0.17088137312209795 -0.7622194715953647 5.530666989959601
| 38> H -0.6675676615700236 1.0302154476278298 4.771675319532849
| 39> H 1.139593962742013 -2.7983505339671564 5.936482085953573
| 40> H 0.08078799970781766 -0.655908519330391 6.617881543469784
| 41> C 0.23527289154294845 -0.16151965750963104 -4.4117757069085
| 42> C -0.9779551067040384 2.3248154780663017 -4.056672658273015
| 43> C -0.23559777253640357 0.9080935820723086 -5.69115319743055
| 44> H 0.6676964057773449 -1.0062926601443467 -5.099311127119488
| 45> C -0.800786358204075 2.032123216159482 -5.061925148272829
| 46> H -1.3978771258001517 3.142143869573666 -3.3480827742983497
| 47> H 0.06078551633602291 0.36525300428373947 -6.652261127207084
| 48> H -1.0162734442645667 2.550420021762454 -6.037551028489684
| 49> *
| 50>
| 51> % eprnmr
| 52> gtensor true
| 53> Nuclei = all H {aiso,adip,aorb,fgrad,rho}
| 54> Nuclei = all Cu {aiso,adip,aorb,fgrad,rho}
| 55> end
| 56>
| 57>                          ****END OF INPUT****

CARTESIAN COORDINATES (ANGSTROEM)
---------------------------------
  Cu     0.000650    0.000128    0.000000
  S     -1.099994   -2.040812    0.000000
  C      0.182365   -3.317604    0.000000
  S     -2.007320    1.158971    0.000000
  C     -1.568337    2.875651    0.000000
  S      2.007962   -1.156936    0.000000
  C      1.496446   -2.753809    0.000000
  S      1.101596    2.038903    0.000000
  C     -0.166571    3.188682    0.000000
  C      0.091084    4.669840    0.000000
  C     -2.507266    3.759568    0.000000
  C     -2.191688    5.251719    0.000000
  H     -3.604327    3.632907    0.000000
  C     -0.803534    5.527458    0.000000
  H      1.180982    4.783425    0.000000
  H     -3.061398    5.916004    0.000000
  H     -0.677054    6.616245    0.000000
  C     -0.213555   -4.415835    0.000000
  C      2.550134   -4.039130    0.000000
  C      0.964275   -5.686787    0.000000
  H     -1.156957   -5.111054    0.000000
  C      2.217324   -5.047509    0.000000
  H      3.463224   -3.323081    0.000000
  H      0.354031   -6.653146    0.000000
  H      2.785302   -6.019267    0.000000

 Total Charge           Charge          ....   -2
 Multiplicity           Mult            ....    2
 Number of Electrons    NEL             ....  175
 Basis Dimension        Dim             ....  475

ORBITAL ENERGIES
----------------
                 SPIN UP ORBITALS
  NO   OCC          E(Eh)            E(eV)    Irrep
   0   1.0000    -318.186019     -8658.2818    1-A'
   1   1.0000     -88.046939     -2395.8790    2-A'
   2   1.0000     -88.030372     -2395.4282    3-A'
   3   1.0000     -88.009399     -2394.8575    4-A'
   4   1.0000     -87.999648     -2394.5922    5-A'
   5   1.0000     -38.030721     -1034.8685    6-A'
   6   1.0000     -33.533754      -912.4998    7-A'
   7   1.0000     -33.532820      -912.4744    8-A'
   8   1.0000     -33.519801      -912.1202    1-A"
   9   1.0000      -9.858573      -268.2654    9-A'
  10   1.0000      -9.846999      -267.9505   10-A'
  11   1.0000      -9.828580      -267.4493   11-A'
  12   1.0000      -9.828516      -267.4475   12-A'
  13   1.0000      -9.824642      -267.3421   13-A'
  14   1.0000      -9.820209      -267.2215   14-A'
  15   1.0000      -9.819671      -267.2068   15-A'
  16   1.0000      -9.817099      -267.1368   16-A'
  17   1.0000      -9.812695      -267.0170   17-A'
  18   1.0000      -9.811998      -266.9980   18-A'
  19   1.0000      -9.809162      -266.9209   19-A'
  20   1.0000      -9.800690      -266.6903   20-A'
  21   1.0000      -7.615476      -207.2276   21-A'
  22   1.0000      -7.599184      -206.7843   22-A'
  23   1.0000      -7.577874      -206.2044   23-A'
  24   1.0000      -7.568538      -205.9504   24-A'
  25   1.0000      -5.538177      -150.7015   25-A'
  26   1.0000      -5.532833      -150.5560    2-A"
  27   1.0000      -5.532490      -150.5467   26-A'
  28   1.0000      -5.522173      -150.2660   27-A'
  29   1.0000      -5.516580      -150.1138   28-A'
  30   1.0000      -5.515809      -150.0928    3-A"
  31   1.0000      -5.501243      -149.6964   29-A'
  32   1.0000      -5.496277      -149.5613   30-A'
  33   1.0000      -5.493496      -149.4856    4-A"
  34   1.0000      -5.492121      -149.4482   31-A'
  35   1.0000      -5.487088      -149.3112   32-A'
  36   1.0000      -5.483781      -149.2213    5-A"
  37   1.0000      -4.028236      -109.6139   33-A'
  38   1.0000      -2.549350       -69.3713   34-A'
  39   1.0000      -2.547702       -69.3265   35-A'
  40   1.0000      -2.521582       -68.6157    6-A"
  41   1.0000      -0.601501       -16.3677   36-A'
  42   1.0000      -0.594917       -16.1885   37-A'
  43   1.0000      -0.541833       -14.7440   38-A'
  44   1.0000      -0.518687       -14.1142   39-A'
  45   1.0000      -0.490144       -13.3375   40-A'
  46   1.0000      -0.488258       -13.2862   41-A'
  47   1.0000      -0.414781       -11.2868   42-A'
  48   1.0000      -0.411878       -11.2078   43-A'
  49   1.0000      -0.383943       -10.4476   44-A'
  50   1.0000      -0.371532       -10.1099   45-A'
  51   1.0000      -0.332499        -9.0478   46-A'
  52   1.0000      -0.323213        -8.7951   47-A'
  53   1.0000      -0.300283        -8.1711   48-A'
  54   1.0000      -0.285390        -7.7659   49-A'
  55   1.0000      -0.238806        -6.4983   50-A'
  56   1.0000      -0.233158        -6.3446   51-A'
  57   1.0000      -0.211097        -5.7442   52-A'
  58   1.0000      -0.203870        -5.5476   53-A'
  59   1.0000      -0.183358        -4.9894   54-A'
  60   1.0000      -0.179101        -4.8736   55-A'
  61   1.0000      -0.140050        -3.8110   56-A'
  62   1.0000      -0.133655        -3.6369    7-A"
  63   1.0000      -0.132104        -3.5947   57-A'
  64   1.0000      -0.122424        -3.3313    8-A"
  65   1.0000      -0.114701        -3.1212   58-A'
  66   1.0000      -0.104620        -2.8468   59-A'
  67   1.0000      -0.096977        -2.6389   60-A'
  68   1.0000      -0.077961        -2.1214   61-A'
  69   1.0000      -0.076512        -2.0820    9-A"
  70   1.0000      -0.052019        -1.4155   62-A'
  71   1.0000      -0.049550        -1.3483   10-A"
  72   1.0000      -0.039077        -1.0633   63-A'
  73   1.0000      -0.034613        -0.9419   11-A"
  74   1.0000      -0.026487        -0.7207   12-A"
  75   1.0000      -0.026226        -0.7137   64-A'
  76   1.0000      -0.008511        -0.2316   65-A'
  77   1.0000      -0.004823        -0.1312   13-A"
  78   1.0000      -0.000494        -0.0134   14-A"
  79   1.0000       0.006923         0.1884   66-A'
  80   1.0000       0.015280         0.4158   67-A'
  81   1.0000       0.033247         0.9047   68-A'
  82   1.0000       0.039328         1.0702   69-A'
  83   1.0000       0.049114         1.3364   15-A"
  84   1.0000       0.057103         1.5538   16-A"
  85   1.0000       0.064401         1.7524   17-A"
  86   1.0000       0.086202         2.3457   18-A"
  87   1.0000       0.101612         2.7650   70-A'
  88   0.0000       0.157243         4.2788   19-A"
  89   0.0000       0.180363         4.9079   71-A'
  90   0.0000       0.180917         4.9230   20-A"
  91   0.0000       0.182544         4.9673   72-A'
  92   0.0000       0.195492         5.3196   73-A'

                 SPIN DOWN ORBITALS
  NO   OCC          E(Eh)            E(eV)    Irrep
   0   1.0000    -318.185849     -8658.2771    1-A'
   1   1.0000     -88.046067     -2395.8553    2-A'
   2   1.0000     -88.029469     -2395.4036    3-A'
   3   1.0000     -88.008167     -2394.8240    4-A'
   4   1.0000     -87.998413     -2394.5586    5-A'
   5   1.0000     -38.015453     -1034.4531    6-A'
   6   1.0000     -33.519171      -912.1030    7-A'
   7   1.0000     -33.518271      -912.0785    8-A'
   8   1.0000     -33.515609      -912.0061    1-A"
   9   1.0000      -9.858706      -268.2690    9-A'
  10   1.0000      -9.847102      -267.9533   10-A'
  11   1.0000      -9.828474      -267.4464   11-A'
  12   1.0000      -9.828405      -267.4445   12-A'
  13   1.0000      -9.824749      -267.3450   13-A'
  14   1.0000      -9.820186      -267.2208   14-A'
  15   1.0000      -9.819622      -267.2055   15-A'
  16   1.0000      -9.817102      -267.1369   16-A'
  17   1.0000      -9.812631      -267.0153   17-A'
  18   1.0000      -9.812053      -266.9995   18-A'
  19   1.0000      -9.809091      -266.9189   19-A'
  20   1.0000      -9.800598      -266.6878   20-A'
  21   1.0000      -7.614875      -207.2113   21-A'
  22   1.0000      -7.598560      -206.7673   22-A'
  23   1.0000      -7.577037      -206.1817   23-A'
  24   1.0000      -7.567713      -205.9279   24-A'
  25   1.0000      -5.537405      -150.6805   25-A'
  26   1.0000      -5.532122      -150.5367    2-A"
  27   1.0000      -5.530718      -150.4985   26-A'
  28   1.0000      -5.521386      -150.2446   27-A'
  29   1.0000      -5.515098      -150.0734    3-A"
  30   1.0000      -5.514695      -150.0625   28-A'
  31   1.0000      -5.500154      -149.6668   29-A'
  32   1.0000      -5.493705      -149.4913   30-A'
  33   1.0000      -5.492580      -149.4607    4-A"
  34   1.0000      -5.490938      -149.4160   31-A'
  35   1.0000      -5.484601      -149.2436   32-A'
  36   1.0000      -5.482889      -149.1970    5-A"
  37   1.0000      -3.996039      -108.7377   33-A'
  38   1.0000      -2.510254       -68.3075    6-A"
  39   1.0000      -2.509294       -68.2814   34-A'
  40   1.0000      -2.507413       -68.2302   35-A'
  41   1.0000      -0.601064       -16.3558   36-A'
  42   1.0000      -0.594544       -16.1784   37-A'
  43   1.0000      -0.540952       -14.7201   38-A'
  44   1.0000      -0.517665       -14.0864   39-A'
  45   1.0000      -0.487973       -13.2784   40-A'
  46   1.0000      -0.486414       -13.2360   41-A'
  47   1.0000      -0.412102       -11.2139   42-A'
  48   1.0000      -0.410021       -11.1572   43-A'
  49   1.0000      -0.379542       -10.3279   44-A'
  50   1.0000      -0.366098        -9.9620   45-A'
  51   1.0000      -0.330935        -9.0052   46-A'
  52   1.0000      -0.321781        -8.7561   47-A'
  53   1.0000      -0.298436        -8.1208   48-A'
  54   1.0000      -0.283760        -7.7215   49-A'
  55   1.0000      -0.238042        -6.4775   50-A'
  56   1.0000      -0.232491        -6.3264   51-A'
  57   1.0000      -0.210088        -5.7168   52-A'
  58   1.0000      -0.203072        -5.5259   53-A'
  59   1.0000      -0.182684        -4.9711   54-A'
  60   1.0000      -0.178183        -4.8486   55-A'
  61   1.0000      -0.138423        -3.7667   56-A'
  62   1.0000      -0.133550        -3.6341    7-A"
  63   1.0000      -0.131050        -3.5660   57-A'
  64   1.0000      -0.122248        -3.3265    8-A"
  65   1.0000      -0.113121        -3.0782   58-A'
  66   1.0000      -0.101143        -2.7522   59-A'
  67   1.0000      -0.092526        -2.5178   60-A'
  68   1.0000      -0.076357        -2.0778   61-A'
  69   1.0000      -0.076045        -2.0693    9-A"
  70   1.0000      -0.048575        -1.3218   10-A"
  71   1.0000      -0.042193        -1.1481   62-A'
  72   1.0000      -0.031024        -0.8442   11-A"
  73   1.0000      -0.023707        -0.6451   12-A"
  74   1.0000      -0.022285        -0.6064   63-A'
  75   1.0000      -0.012269        -0.3339   64-A'
  76   1.0000       0.001472         0.0400   65-A'
  77   1.0000       0.005262         0.1432   13-A"
  78   1.0000       0.010956         0.2981   14-A"
  79   1.0000       0.019369         0.5271   66-A'
  80   1.0000       0.027257         0.7417   67-A'
  81   1.0000       0.040561         1.1037   68-A'
  82   1.0000       0.043473         1.1830   69-A'
  83   1.0000       0.052643         1.4325   15-A"
  84   1.0000       0.060825         1.6551   16-A"
  85   1.0000       0.065744         1.7890   17-A"
  86   1.0000       0.090255         2.4560   18-A"
  87   0.0000       0.132592         3.6080   70-A'
  88   0.0000       0.157624         4.2892   19-A"
  89   0.0000       0.181219         4.9312   20-A"
  90   0.0000       0.181449         4.9375   71-A'
  91   0.0000       0.183378         4.9900   72-A'

MULLIKEN ATOMIC CHARGES AND SPIN POPULATIONS
--------------------------------------------
   0 Cu:    0.133853    0.361862
   1 S :   -0.503348    0.193909
   2 C :    0.070900   -0.008546
   3 S :   -0.446023    0.189386
   4 C :    0.038684   -0.008972
   5 S :   -0.309450    0.128539
   6 C :   -0.015078   -0.010237
   7 S :   -0.394050    0.135994
   8 C :    0.003358   -0.006398
   9 C :   -0.130988   -0.000084
  10 C :   -0.025160   -0.001335
  11 C :   -0.211530   -0.000458
  12 H :    0.043827    0.001600
  13 C :   -0.052482   -0.000686
  14 H :    0.061796    0.002224
  15 H :    0.026727    0.001200
  16 H :    0.021262    0.001186
  17 C :    0.029930   -0.004300
  18 C :   -0.143325    0.005945
  19 C :   -0.268945    0.006886
  20 H :    0.001283    0.005677
  21 C :    0.064978   -0.000628
  22 H :    0.031222    0.002238
  23 H :    0.004389    0.001332
  24 H :   -0.031831    0.003664
Sum of atomic charges         :   -2.0000000

LOEWDIN ATOMIC CHARGES AND SPIN POPULATIONS
-------------------------------------------
   0 Cu:   -0.888638    0.427255
   1 S :   -0.044150    0.144660
   2 C :   -0.131369    0.004727
   3 S :   -0.011436    0.144677
   4 C :   -0.077330    0.005792
   5 S :    0.102031    0.101371
   6 C :    0.054460    0.003406
   7 S :    0.043078    0.104137
   8 C :    0.004364    0.004446
   9 C :    0.282524    0.003385
  10 C :    0.300046    0.004974
  11 C :    0.362030    0.000358
  12 H :   -0.420532    0.005941
  13 C :    0.252485   -0.000048
  14 H :   -0.450874    0.006709
  15 H :   -0.422986    0.000159
  16 H :   -0.408245    0.000444
  17 C :    0.286997    0.006058
  18 C :    0.248901    0.005391
  19 C :    0.392979    0.005446
  20 H :   -0.365103    0.006624
  21 C :    0.131373    0.000953
  22 H :   -0.422440    0.009942
  23 H :   -0.411502    0.000951
  24 H :   -0.406665    0.002243

  Mayer bond orders larger than 0.100000
B(  0-Cu,  1-S ) :   0.7529 B(  0-Cu,  3-S ) :   0.7365 B(  0-Cu,  5-S ) :   0.6300
B(  0-Cu,  7-S ) :   0.6638 B(  1-S ,  2-C ) :   1.0224 B(  2-C ,  6-C ) :   1.1763
B(  2-C , 17-C ) :   1.5267 B(  3-S ,  4-C ) :   1.1212 B(  4-C ,  8-C ) :   1.2281
B(  4-C , 10-C ) :   1.3902 B(  5-S ,  6-C ) :   1.3645 B(  5-S , 19-C ) :   0.1122
B(  6-C , 18-C ) :   1.0758 B(  6-C , 19-C ) :   0.1604 B(  7-S ,  8-C ) :   1.2559
B(  8-C ,  9-C ) :   1.2377 B(  9-C , 13-C ) :   1.4482 B(  9-C , 14-H ) :   0.9627
B( 10-C , 11-C ) :   1.2928 B( 10-C , 12-H ) :   0.9689 B( 11-C , 13-C ) :   1.3006
B( 11-C , 15-H ) :   0.9921 B( 13-C , 16-H ) :   0.9805 B( 17-C , 19-C ) :   1.1189
B( 17-C , 20-H ) :   0.9466 B( 18-C , 21-C ) :   1.6329 B( 18-C , 22-H ) :   0.9229
B( 19-C , 21-C ) :   1.1864 B( 19-C , 23-H ) :   0.9944 B( 21-C , 24-H ) :   0.9443

FINAL SINGLE POINT ENERGY     -3686.495130517545

DIPOLE MOMENT
-------------
                                X             Y             Z
Electronic contribution:      1.15276       0.75723       0.00000
Nuclear contribution   :     -0.67536      -0.14887       0.00000
                        -----------------------------------------
Total Dipole Moment    :      0.47740       0.60836       0.00000
                        -----------------------------------------
Magnitude (a.u.)       :      0.77331
Magnitude (Debye)      :      1.96561

Rotational constants in cm-1:     0.033401     0.004802     0.004198
Rotational constants in MHz :  1001.344211   143.951311   125.858182

                             ****ORCA TERMINATED NORMALLY****
TOTAL RUN TIME: 0 days 4 hours 54 minutes 24 seconds 63 msec
