                         Program Version 5.0.4 -  RELEASE  -
|  1> ! RIJCOSX nofrozencore ReducedPop printbasis
|  2> ! M06L ano-rcc-dzp autoaux
|  3>
|  4> %maxcore 5000
|  5> %basis
|  6> PCDTrimBas overlap
|  7> PCDTrimAuxJ Coulomb
|  8> PCDTrimAuxJK Coulomb
|  9> PCDTrimAuxC Coulomb
| 10> PCDThresh -1
| 11> end
| 12>
| 13> %basis
| 14> newgto Cu "ano-rcc-tzp" end
| 15> newgto S "ano-rcc-tzp" end
| 16> end
| 17>
| 18> %pal
| 19> nprocs 12
| 20> end
| 21>
| 22> % sym SymThresh 1e-2 end
| 23> * xyz -2 2
| 24> Cu -1.3316047545911567e-05 9.96694954350312e-06 3.65277901771862e-06
| 25> S 1.69425520658188 -1.4320294118877543 -0.6790312825162056
| 26> C 1.0719759648670424 -2.179050984149607 -2.093926524138085
| 27> S 1.2421756693786243 0.7235689729263304 1.8208004911211721
| 28> C 0.21369911924791135 1.872505060693972 2.598597705059621
| 29> S -1.2419813070016403 -0.7236723374629408 -1.8207987478528265
| 30> C -0.21556832821631794 -1.87201457192394 -2.5992728491915673
| 31> S -1.6940199296541647 1.4322325454227762 0.6794625533524956
| 32> C -1.073696023590828 2.1783303812185193 2.091773048481748
| 33> C -1.879216802322406 3.130809207185838 2.7697419591403327
| 34> C 0.7057195257758021 2.5080876631173195 3.776062691837952
| 35> C -0.08835632413594975 3.4898332535531855 4.500354922561615
| 36> H 1.721150728095797 2.145146370600441 4.016681605602324
| 37> C -1.4530820063141323 3.822702687297707 3.974426879173648
| 38> H -2.843605799943827 3.2495016328996154 2.2457408755594575
| 39> H 0.349008524989662 3.9403349142824835 5.3973549294660055
| 40> H -2.1453348777598094 4.541086977419863 4.426112258863869
| 41> C 1.8806507268612063 -3.1315369341664487 -2.769683530904715
| 42> C -0.7020890180136168 -2.509269917599956 -3.7750515480662763
| 43> C 1.450542969220721 -3.820659370360835 -3.973543599753661
| 44> H 2.8452853003613985 -3.2519158130199277 -2.247714354136506
| 45> C 0.08844717890609709 -3.489637079900008 -4.500034461474211
| 46> H -1.7166322373488214 -2.1504028764094194 -4.0203717369075305
| 47> H 2.1393005601444113 -4.53972520522226 -4.428581604809323
| 48> H -0.3504165712248476 -3.9390237050291996 -5.396632292562932
| 49> *
| 50>
| 51> % eprnmr
| 52> gtensor true
| 53> Nuclei = all H {aiso,adip,aorb,fgrad,rho}
| 54> Nuclei = all Cu {aiso,adip,aorb,fgrad,rho}
| 55> end
| 56>
| 57>                          ****END OF INPUT****

CARTESIAN COORDINATES (ANGSTROEM)
---------------------------------
  Cu    -0.000013    0.000010    0.000004
  S      1.694255   -1.432029   -0.679031
  C      1.071976   -2.179051   -2.093926
  S      1.242176    0.723569    1.820801
  C      0.213699    1.872505    2.598598
  S     -1.241981   -0.723672   -1.820799
  C     -0.215568   -1.872015   -2.599273
  S     -1.694020    1.432233    0.679463
  C     -1.073696    2.178330    2.091773
  C     -1.879217    3.130809    2.769742
  C      0.705720    2.508088    3.776063
  C     -0.088356    3.489833    4.500355
  H      1.721151    2.145146    4.016682
  C     -1.453082    3.822703    3.974427
  H     -2.843606    3.249502    2.245741
  H      0.349009    3.940335    5.397355
  H     -2.145335    4.541087    4.426112
  C      1.880651   -3.131537   -2.769683
  C     -0.702089   -2.509270   -3.775051
  C      1.450543   -3.820659   -3.973544
  H      2.845285   -3.251916   -2.247714
  C      0.088447   -3.489637   -4.500034
  H     -1.716632   -2.150403   -4.020372
  H      2.139301   -4.539725   -4.428582
  H     -0.350417   -3.939024   -5.396632

 Total Charge           Charge          ....   -2
 Multiplicity           Mult            ....    2
 Number of Electrons    NEL             ....  175
 Basis Dimension        Dim             ....  475

ORBITAL ENERGIES
----------------
                 SPIN UP ORBITALS
  NO   OCC          E(Eh)            E(eV)
   0   1.0000    -318.185058     -8658.2556
   1   1.0000     -88.017798     -2395.0860
   2   1.0000     -88.017776     -2395.0854
   3   1.0000     -88.017671     -2395.0826
   4   1.0000     -88.017634     -2395.0816
   5   1.0000     -38.030044     -1034.8501
   6   1.0000     -33.533154      -912.4835
   7   1.0000     -33.532322      -912.4609
   8   1.0000     -33.518707      -912.0904
   9   1.0000      -9.846327      -267.9322
  10   1.0000      -9.846117      -267.9265
  11   1.0000      -9.845852      -267.9193
  12   1.0000      -9.845687      -267.9148
  13   1.0000      -9.834326      -267.6056
  14   1.0000      -9.834164      -267.6012
  15   1.0000      -9.833584      -267.5854
  16   1.0000      -9.833404      -267.5805
  17   1.0000      -9.829196      -267.4660
  18   1.0000      -9.828550      -267.4484
  19   1.0000      -9.827767      -267.4271
  20   1.0000      -9.827662      -267.4243
  21   1.0000      -7.587167      -206.4573
  22   1.0000      -7.587094      -206.4553
  23   1.0000      -7.586760      -206.4462
  24   1.0000      -7.586705      -206.4447
  25   1.0000      -5.510157      -149.9390
  26   1.0000      -5.510097      -149.9374
  27   1.0000      -5.509777      -149.9287
  28   1.0000      -5.509718      -149.9270
  29   1.0000      -5.505060      -149.8003
  30   1.0000      -5.505002      -149.7987
  31   1.0000      -5.504699      -149.7905
  32   1.0000      -5.504654      -149.7892
  33   1.0000      -5.503312      -149.7527
  34   1.0000      -5.503237      -149.7507
  35   1.0000      -5.502906      -149.7417
  36   1.0000      -5.502857      -149.7403
  37   1.0000      -4.027630      -109.5974
  38   1.0000      -2.548919       -69.3596
  39   1.0000      -2.547489       -69.3207
  40   1.0000      -2.520330       -68.5817
  41   1.0000      -0.576391       -15.6844
  42   1.0000      -0.575923       -15.6717
  43   1.0000      -0.495407       -13.4807
  44   1.0000      -0.494218       -13.4483
  45   1.0000      -0.488206       -13.2848
  46   1.0000      -0.487774       -13.2730
  47   1.0000      -0.409546       -11.1443
  48   1.0000      -0.407176       -11.0798
  49   1.0000      -0.384064       -10.4509
  50   1.0000      -0.377174       -10.2634
  51   1.0000      -0.320194        -8.7129
  52   1.0000      -0.318045        -8.6544
  53   1.0000      -0.305309        -8.3079
  54   1.0000      -0.302169        -8.2224
  55   1.0000      -0.221380        -6.0241
  56   1.0000      -0.215637        -5.8678
  57   1.0000      -0.180583        -4.9139
  58   1.0000      -0.179017        -4.8713
  59   1.0000      -0.176468        -4.8019
  60   1.0000      -0.171654        -4.6709
  61   1.0000      -0.148188        -4.0324
  62   1.0000      -0.146342        -3.9822
  63   1.0000      -0.132334        -3.6010
  64   1.0000      -0.114955        -3.1281
  65   1.0000      -0.109606        -2.9825
  66   1.0000      -0.109307        -2.9744
  67   1.0000      -0.088576        -2.4103
  68   1.0000      -0.071024        -1.9327
  69   1.0000      -0.066945        -1.8217
  70   1.0000      -0.065634        -1.7860
  71   1.0000      -0.035591        -0.9685
  72   1.0000      -0.034974        -0.9517
  73   1.0000      -0.032727        -0.8906
  74   1.0000      -0.032559        -0.8860
  75   1.0000      -0.028770        -0.7829
  76   1.0000      -0.019694        -0.5359
  77   1.0000      -0.004505        -0.1226
  78   1.0000      -0.003724        -0.1013
  79   1.0000      -0.000758        -0.0206
  80   1.0000       0.014425         0.3925
  81   1.0000       0.015272         0.4156
  82   1.0000       0.029948         0.8149
  83   1.0000       0.047696         1.2979
  84   1.0000       0.049547         1.3482
  85   1.0000       0.061782         1.6812
  86   1.0000       0.086004         2.3403
  87   1.0000       0.100948         2.7469
  88   0.0000       0.183498         4.9932
  89   0.0000       0.183667         4.9978
  90   0.0000       0.192402         5.2355
  91   0.0000       0.193856         5.2751
  92   0.0000       0.195365         5.3161

                 SPIN DOWN ORBITALS
  NO   OCC          E(Eh)            E(eV)
   0   1.0000    -318.184893     -8658.2511
   1   1.0000     -88.016728     -2395.0569
   2   1.0000     -88.016707     -2395.0564
   3   1.0000     -88.016601     -2395.0535
   4   1.0000     -88.016563     -2395.0524
   5   1.0000     -38.014380     -1034.4239
   6   1.0000     -33.518176      -912.0759
   7   1.0000     -33.517377      -912.0542
   8   1.0000     -33.514478      -911.9753
   9   1.0000      -9.846291      -267.9312
  10   1.0000      -9.846082      -267.9255
  11   1.0000      -9.845817      -267.9183
  12   1.0000      -9.845651      -267.9138
  13   1.0000      -9.834435      -267.6086
  14   1.0000      -9.834273      -267.6042
  15   1.0000      -9.833694      -267.5884
  16   1.0000      -9.833514      -267.5835
  17   1.0000      -9.829118      -267.4639
  18   1.0000      -9.828472      -267.4463
  19   1.0000      -9.827685      -267.4249
  20   1.0000      -9.827580      -267.4220
  21   1.0000      -7.586435      -206.4374
  22   1.0000      -7.586359      -206.4353
  23   1.0000      -7.586029      -206.4263
  24   1.0000      -7.585972      -206.4248
  25   1.0000      -5.509223      -149.9136
  26   1.0000      -5.509159      -149.9118
  27   1.0000      -5.508840      -149.9032
  28   1.0000      -5.508778      -149.9015
  29   1.0000      -5.502822      -149.7394
  30   1.0000      -5.502752      -149.7375
  31   1.0000      -5.502501      -149.7307
  32   1.0000      -5.502462      -149.7296
  33   1.0000      -5.502422      -149.7285
  34   1.0000      -5.502411      -149.7282
  35   1.0000      -5.502094      -149.7196
  36   1.0000      -5.502043      -149.7182
  37   1.0000      -3.994318      -108.6909
  38   1.0000      -2.508819       -68.2684
  39   1.0000      -2.507357       -68.2286
  40   1.0000      -2.505890       -68.1887
  41   1.0000      -0.575717       -15.6660
  42   1.0000      -0.575254       -15.6534
  43   1.0000      -0.494110       -13.4454
  44   1.0000      -0.492986       -13.4148
  45   1.0000      -0.486663       -13.2428
  46   1.0000      -0.486255       -13.2317
  47   1.0000      -0.406014       -11.0482
  48   1.0000      -0.403541       -10.9809
  49   1.0000      -0.380917       -10.3653
  50   1.0000      -0.374040       -10.1781
  51   1.0000      -0.318971        -8.6796
  52   1.0000      -0.316536        -8.6134
  53   1.0000      -0.303610        -8.2616
  54   1.0000      -0.300092        -8.1659
  55   1.0000      -0.220755        -6.0070
  56   1.0000      -0.214958        -5.8493
  57   1.0000      -0.179614        -4.8875
  58   1.0000      -0.178154        -4.8478
  59   1.0000      -0.175666        -4.7801
  60   1.0000      -0.170277        -4.6335
  61   1.0000      -0.147561        -4.0153
  62   1.0000      -0.145002        -3.9457
  63   1.0000      -0.131070        -3.5666
  64   1.0000      -0.113970        -3.1013
  65   1.0000      -0.109220        -2.9720
  66   1.0000      -0.108885        -2.9629
  67   1.0000      -0.087204        -2.3729
  68   1.0000      -0.069590        -1.8937
  69   1.0000      -0.064022        -1.7421
  70   1.0000      -0.052622        -1.4319
  71   1.0000      -0.032645        -0.8883
  72   1.0000      -0.031721        -0.8632
  73   1.0000      -0.026012        -0.7078
  74   1.0000      -0.024843        -0.6760
  75   1.0000      -0.018600        -0.5061
  76   1.0000      -0.007102        -0.1932
  77   1.0000       0.005472         0.1489
  78   1.0000       0.006125         0.1667
  79   1.0000       0.011015         0.2997
  80   1.0000       0.022153         0.6028
  81   1.0000       0.030144         0.8202
  82   1.0000       0.038299         1.0422
  83   1.0000       0.050286         1.3683
  84   1.0000       0.054698         1.4884
  85   1.0000       0.063563         1.7296
  86   1.0000       0.089979         2.4485
  87   0.0000       0.133819         3.6414
  88   0.0000       0.184808         5.0289
  89   0.0000       0.184962         5.0331
  90   0.0000       0.192485         5.2378
  91   0.0000       0.194271         5.2864

MULLIKEN ATOMIC CHARGES AND SPIN POPULATIONS
--------------------------------------------
   0 Cu:    0.129096    0.375413
   1 S :   -0.403681    0.161689
   2 C :    0.056638   -0.007604
   3 S :   -0.405644    0.162768
   4 C :    0.059845   -0.007825
   5 S :   -0.406880    0.162305
   6 C :    0.058524   -0.007790
   7 S :   -0.403329    0.160881
   8 C :    0.056724   -0.007572
   9 C :   -0.098860   -0.000619
  10 C :   -0.107991   -0.000683
  11 C :   -0.195905   -0.000657
  12 H :    0.074712    0.002049
  13 C :   -0.204484   -0.000702
  14 H :    0.077847    0.002141
  15 H :    0.043272    0.001184
  16 H :    0.039236    0.001203
  17 C :   -0.100152   -0.000705
  18 C :   -0.105236   -0.000706
  19 C :   -0.202016   -0.000684
  20 H :    0.077137    0.002185
  21 C :   -0.196301   -0.000696
  22 H :    0.075275    0.002047
  23 H :    0.039846    0.001197
  24 H :    0.042327    0.001180
Sum of atomic charges         :   -2.0000000

LOEWDIN ATOMIC CHARGES AND SPIN POPULATIONS
-------------------------------------------
   0 Cu:   -0.867605    0.443185
   1 S :    0.028882    0.121338
   2 C :   -0.053064    0.004957
   3 S :    0.025204    0.121608
   4 C :   -0.044957    0.004573
   5 S :    0.025615    0.121322
   6 C :   -0.046584    0.004638
   7 S :    0.030204    0.120647
   8 C :   -0.055397    0.005029
   9 C :    0.313343    0.004461
  10 C :    0.314875    0.004469
  11 C :    0.334290    0.000085
  12 H :   -0.466006    0.008527
  13 C :    0.335009    0.000061
  14 H :   -0.468061    0.008363
  15 H :   -0.444788    0.000233
  16 H :   -0.440394    0.000235
  17 C :    0.313664    0.004460
  18 C :    0.314222    0.004431
  19 C :    0.334673    0.000069
  20 H :   -0.467351    0.008367
  21 C :    0.334093    0.000058
  22 H :   -0.465898    0.008421
  23 H :   -0.440723    0.000237
  24 H :   -0.443247    0.000227

  Mayer bond orders larger than 0.100000
B(  0-Cu,  1-S ) :   0.7013 B(  0-Cu,  3-S ) :   0.7032 B(  0-Cu,  5-S ) :   0.7028
B(  0-Cu,  7-S ) :   0.7006 B(  1-S ,  2-C ) :   1.1974 B(  2-C ,  6-C ) :   1.2370
B(  2-C , 17-C ) :   1.3068 B(  3-S ,  4-C ) :   1.1890 B(  4-C ,  8-C ) :   1.2367
B(  4-C , 10-C ) :   1.3079 B(  5-S ,  6-C ) :   1.1900 B(  6-C , 18-C ) :   1.3082
B(  7-S ,  8-C ) :   1.1997 B(  8-C ,  9-C ) :   1.3063 B(  9-C , 13-C ) :   1.3735
B(  9-C , 14-H ) :   0.9565 B( 10-C , 11-C ) :   1.3758 B( 10-C , 12-H ) :   0.9585
B( 11-C , 13-C ) :   1.3259 B( 11-C , 15-H ) :   0.9863 B( 13-C , 16-H ) :   0.9893
B( 17-C , 19-C ) :   1.3739 B( 17-C , 20-H ) :   0.9571 B( 18-C , 21-C ) :   1.3749
B( 18-C , 22-H ) :   0.9584 B( 19-C , 21-C ) :   1.3266 B( 19-C , 23-H ) :   0.9889
B( 21-C , 24-H ) :   0.9869

FINAL SINGLE POINT ENERGY     -3686.884595274839

DIPOLE MOMENT
-------------
                                X             Y             Z
Electronic contribution:      0.00091      -0.00116      -0.00088
Nuclear contribution   :     -0.00111      -0.00474      -0.00698
                        -----------------------------------------
Total Dipole Moment    :     -0.00020      -0.00591      -0.00786
                        -----------------------------------------
Magnitude (a.u.)       :      0.00984
Magnitude (Debye)      :      0.02500

Rotational constants in cm-1:     0.032713     0.004795     0.004182
Rotational constants in MHz :   980.725676   143.744621   125.369288

                             ****ORCA TERMINATED NORMALLY****
TOTAL RUN TIME: 0 days 6 hours 28 minutes 38 seconds 720 msec
