                         Program Version 5.0.4 -  RELEASE  -
|  1> ! RIJCOSX nofrozencore ReducedPop printbasis
|  2> ! M06L ano-rcc-dzp autoaux
|  3>
|  4> %maxcore 5000
|  5> %basis
|  6> PCDTrimBas overlap
|  7> PCDTrimAuxJ Coulomb
|  8> PCDTrimAuxJK Coulomb
|  9> PCDTrimAuxC Coulomb
| 10> PCDThresh -1
| 11> end
| 12>
| 13> %basis
| 14> newgto Cu "ano-rcc-tzp" end
| 15> newgto S "ano-rcc-tzp" end
| 16> end
| 17>
| 18> %pal
| 19> nprocs 12
| 20> end
| 21>
| 22> % sym SymThresh 1e-2 end
| 23> * xyz -2 2
| 24> Cu 0.004646651248648684 -0.12340457357866176 -0.09925465009278953
| 25> S -0.06771114288186385 2.3550267617049836 -0.26033659784204666
| 26> C -0.05801629246415629 2.5950083579302863 -1.9927807472129677
| 27> S -0.031372939868623335 0.2829569147984521 2.35678916252552
| 28> C 0.01123166343490567 -1.3492921781783174 2.982142555923894
| 29> S 0.02732530947987202 -0.17791156064867497 -2.2628176446449197
| 30> C -0.015741717064449122 1.4561035858942777 -2.8461630066380046
| 31> S 0.06346821001213712 -2.2395960502461123 0.3425436895359015
| 32> C 0.052649444160959936 -2.4392132821643107 2.066656517932226
| 33> C 0.08735353184581168 -3.7557677239954708 2.5359014110238878
| 34> C 0.0077898297078761135 -1.6812642372620028 4.353529709563716
| 35> C 0.0428748944002872 -3.004118190654029 4.802520236024595
| 36> H -0.023394745845114247 -0.8737577669063387 5.082955366438574
| 37> C 0.08316357536150945 -4.056858843394801 3.88909878441349
| 38> H 0.1182409743617759 -4.548595802133559 1.7918108433799433
| 39> H 0.03849839523816033 -3.2062079477530525 5.871606524001267
| 40> H 0.11074078528994526 -5.090729827578348 4.224024504179692
| 41> C -0.08943666952378021 3.85539871989229 -2.6272292709244827
| 42> C -0.006931746145250187 1.6139338260009584 -4.23531652097624
| 43> C -0.08001432775432964 3.9933817976223325 -4.018168183127936
| 44> H -0.12211730456023175 4.748131947628278 -2.005208376604446
| 45> C -0.038379905224796715 2.863786856479902 -4.834299177782018
| 46> H 0.025897252378274376 0.7104586206998889 -4.8396557035220455
| 47> H -0.10539978472617033 4.988017037761589 -4.45807019586197
| 48> H -0.03055452777253001 2.9549242213617943 -5.917713350628263
| 49> *
| 50>
| 51> % eprnmr
| 52> gtensor true
| 53> Nuclei = all H {aiso,adip,aorb,fgrad,rho}
| 54> Nuclei = all Cu {aiso,adip,aorb,fgrad,rho}
| 55> end
| 56>
| 57>                          ****END OF INPUT****

CARTESIAN COORDINATES (ANGSTROEM)
---------------------------------
  Cu     0.000000    0.000000   -0.158432
  S     -1.669141    0.000000    1.685518
  C     -3.174593    0.000000    0.795744
  S      1.669141    0.000000    1.685518
  C      3.174593    0.000000    0.795744
  S     -1.661305    0.000000   -1.544347
  C     -3.135042    0.000000   -0.627594
  S      1.661305    0.000000   -1.544347
  C      3.135042    0.000000   -0.627594
  C      4.321226    0.000000   -1.367656
  C      4.455196    0.000000    1.388672
  C      5.629935    0.000000    0.631512
  H      4.523755    0.000000    2.475100
  C      5.567939    0.000000   -0.761385
  H      4.232095    0.000000   -2.451603
  H      6.592956    0.000000    1.137696
  H      6.473163    0.000000   -1.363513
  C     -4.455196    0.000000    1.388672
  C     -4.321226    0.000000   -1.367656
  C     -5.629935    0.000000    0.631512
  H     -4.523755    0.000000    2.475100
  C     -5.567939    0.000000   -0.761385
  H     -4.232095    0.000000   -2.451603
  H     -6.592956    0.000000    1.137696
  H     -6.473163    0.000000   -1.363513

 Total Charge           Charge          ....   -2
 Multiplicity           Mult            ....    2
 Number of Electrons    NEL             ....  175
 Basis Dimension        Dim             ....  475

ORBITAL ENERGIES
----------------
                 SPIN UP ORBITALS
  NO   OCC          E(Eh)            E(eV)    Irrep
   0   1.0000    -318.183779     -8658.2208    1-A1
   1   1.0000     -88.016480     -2395.0502    1-B1
   2   1.0000     -88.016449     -2395.0493    2-A1
   3   1.0000     -88.012969     -2394.9546    2-B1
   4   1.0000     -88.012946     -2394.9540    3-A1
   5   1.0000     -38.029295     -1034.8297    4-A1
   6   1.0000     -33.532299      -912.4602    5-A1
   7   1.0000     -33.531478      -912.4379    3-B1
   8   1.0000     -33.517990      -912.0709    1-B2
   9   1.0000      -9.834752      -267.6172    4-B1
  10   1.0000      -9.834748      -267.6171    6-A1
  11   1.0000      -9.831002      -267.5152    5-B1
  12   1.0000      -9.830998      -267.5151    7-A1
  13   1.0000      -9.825041      -267.3530    6-B1
  14   1.0000      -9.825041      -267.3530    8-A1
  15   1.0000      -9.823392      -267.3081    7-B1
  16   1.0000      -9.823392      -267.3081    9-A1
  17   1.0000      -9.819380      -267.1989    8-B1
  18   1.0000      -9.819380      -267.1989   10-A1
  19   1.0000      -9.815241      -267.0863    9-B1
  20   1.0000      -9.815240      -267.0863   11-A1
  21   1.0000      -7.586067      -206.4274   10-B1
  22   1.0000      -7.586059      -206.4272   12-A1
  23   1.0000      -7.581008      -206.2897   11-B1
  24   1.0000      -7.581003      -206.2896   13-A1
  25   1.0000      -5.509116      -149.9107   12-B1
  26   1.0000      -5.509116      -149.9107   14-A1
  27   1.0000      -5.504360      -149.7812   13-B1
  28   1.0000      -5.504360      -149.7812   15-A1
  29   1.0000      -5.503929      -149.7695   14-B1
  30   1.0000      -5.503928      -149.7695   16-A1
  31   1.0000      -5.502045      -149.7182    1-A2
  32   1.0000      -5.502044      -149.7182    2-B2
  33   1.0000      -5.498988      -149.6351   15-B1
  34   1.0000      -5.498988      -149.6351   17-A1
  35   1.0000      -5.497108      -149.5839    2-A2
  36   1.0000      -5.497108      -149.5839    3-B2
  37   1.0000      -4.026571      -109.5686   18-A1
  38   1.0000      -2.547716       -69.3269   19-A1
  39   1.0000      -2.546583       -69.2960   16-B1
  40   1.0000      -2.519179       -68.5504    4-B2
  41   1.0000      -0.589021       -16.0281   20-A1
  42   1.0000      -0.588896       -16.0247   17-B1
  43   1.0000      -0.504978       -13.7411   21-A1
  44   1.0000      -0.503848       -13.7104   18-B1
  45   1.0000      -0.489655       -13.3242   22-A1
  46   1.0000      -0.489402       -13.3173   19-B1
  47   1.0000      -0.410455       -11.1691   23-A1
  48   1.0000      -0.407731       -11.0949   20-B1
  49   1.0000      -0.387794       -10.5524   24-A1
  50   1.0000      -0.381375       -10.3777   21-B1
  51   1.0000      -0.321649        -8.7525   25-A1
  52   1.0000      -0.319067        -8.6823   22-B1
  53   1.0000      -0.300240        -8.1699   26-A1
  54   1.0000      -0.296733        -8.0745   23-B1
  55   1.0000      -0.232887        -6.3372   27-A1
  56   1.0000      -0.227750        -6.1974   24-B1
  57   1.0000      -0.189808        -5.1649   28-A1
  58   1.0000      -0.188850        -5.1389   25-B1
  59   1.0000      -0.177850        -4.8395   29-A1
  60   1.0000      -0.174960        -4.7609   26-B1
  61   1.0000      -0.146678        -3.9913   30-A1
  62   1.0000      -0.143961        -3.9174   27-B1
  63   1.0000      -0.131119        -3.5679   31-A1
  64   1.0000      -0.116773        -3.1775    5-B2
  65   1.0000      -0.116688        -3.1752    3-A2
  66   1.0000      -0.114708        -3.1214   28-B1
  67   1.0000      -0.086490        -2.3535   32-A1
  68   1.0000      -0.072683        -1.9778   29-B1
  69   1.0000      -0.069956        -1.9036   33-A1
  70   1.0000      -0.057820        -1.5734   30-B1
  71   1.0000      -0.040537        -1.1031    4-A2
  72   1.0000      -0.038500        -1.0476    6-B2
  73   1.0000      -0.035434        -0.9642   34-A1
  74   1.0000      -0.030625        -0.8333   31-B1
  75   1.0000      -0.026465        -0.7201    7-B2
  76   1.0000      -0.019679        -0.5355    5-A2
  77   1.0000      -0.004444        -0.1209    8-B2
  78   1.0000      -0.002558        -0.0696   35-A1
  79   1.0000      -0.001742        -0.0474    6-A2
  80   1.0000       0.017003         0.4627   36-A1
  81   1.0000       0.020588         0.5602   32-B1
  82   1.0000       0.039506         1.0750   37-A1
  83   1.0000       0.051227         1.3939    7-A2
  84   1.0000       0.051454         1.4001    9-B2
  85   1.0000       0.062856         1.7104   10-B2
  86   1.0000       0.087866         2.3910    8-A2
  87   1.0000       0.102627         2.7926   33-B1
  88   0.0000       0.181389         4.9358   38-A1
  89   0.0000       0.181498         4.9388   34-B1
  90   0.0000       0.196771         5.3544   35-B1
  91   0.0000       0.196935         5.3589   39-A1
  92   0.0000       0.200224         5.4484   11-B2

                 SPIN DOWN ORBITALS
  NO   OCC          E(Eh)            E(eV)    Irrep
   0   1.0000    -318.183589     -8658.2156    1-A1
   1   1.0000     -88.015477     -2395.0229    1-B1
   2   1.0000     -88.015446     -2395.0220    2-A1
   3   1.0000     -88.011806     -2394.9230    2-B1
   4   1.0000     -88.011783     -2394.9224    3-A1
   5   1.0000     -38.014139     -1034.4173    4-A1
   6   1.0000     -33.517822      -912.0663    5-A1
   7   1.0000     -33.516983      -912.0435    3-B1
   8   1.0000     -33.513839      -911.9579    1-B2
   9   1.0000      -9.834903      -267.6213    4-B1
  10   1.0000      -9.834899      -267.6212    6-A1
  11   1.0000      -9.831066      -267.5169    5-B1
  12   1.0000      -9.831062      -267.5168    7-A1
  13   1.0000      -9.825031      -267.3527    6-B1
  14   1.0000      -9.825031      -267.3527    8-A1
  15   1.0000      -9.823354      -267.3070    7-B1
  16   1.0000      -9.823353      -267.3070    9-A1
  17   1.0000      -9.819322      -267.1973    8-B1
  18   1.0000      -9.819322      -267.1973   10-A1
  19   1.0000      -9.815173      -267.0844    9-B1
  20   1.0000      -9.815172      -267.0844   11-A1
  21   1.0000      -7.585379      -206.4087   10-B1
  22   1.0000      -7.585371      -206.4084   12-A1
  23   1.0000      -7.580209      -206.2680   11-B1
  24   1.0000      -7.580204      -206.2678   13-A1
  25   1.0000      -5.508220      -149.8863   12-B1
  26   1.0000      -5.508220      -149.8863   14-A1
  27   1.0000      -5.503366      -149.7542   13-B1
  28   1.0000      -5.503365      -149.7542   15-A1
  29   1.0000      -5.501854      -149.7130   14-B1
  30   1.0000      -5.501853      -149.7130   16-A1
  31   1.0000      -5.501279      -149.6974    1-A2
  32   1.0000      -5.501279      -149.6974    2-B2
  33   1.0000      -5.496512      -149.5677   15-B1
  34   1.0000      -5.496512      -149.5677   17-A1
  35   1.0000      -5.496223      -149.5598    2-A2
  36   1.0000      -5.496222      -149.5598    3-B2
  37   1.0000      -3.994615      -108.6990   18-A1
  38   1.0000      -2.507960       -68.2451    4-B2
  39   1.0000      -2.507886       -68.2430   19-A1
  40   1.0000      -2.506636       -68.2090   16-B1
  41   1.0000      -0.588612       -16.0170   20-A1
  42   1.0000      -0.588499       -16.0139   17-B1
  43   1.0000      -0.503582       -13.7032   21-A1
  44   1.0000      -0.502525       -13.6744   18-B1
  45   1.0000      -0.488576       -13.2948   22-A1
  46   1.0000      -0.488348       -13.2886   19-B1
  47   1.0000      -0.406500       -11.0614   23-A1
  48   1.0000      -0.403649       -10.9838   20-B1
  49   1.0000      -0.384473       -10.4621   24-A1
  50   1.0000      -0.378121       -10.2892   21-B1
  51   1.0000      -0.320415        -8.7189   25-A1
  52   1.0000      -0.317509        -8.6399   22-B1
  53   1.0000      -0.298398        -8.1198   26-A1
  54   1.0000      -0.294454        -8.0125   23-B1
  55   1.0000      -0.232301        -6.3212   27-A1
  56   1.0000      -0.226986        -6.1766   24-B1
  57   1.0000      -0.188758        -5.1364   28-A1
  58   1.0000      -0.187894        -5.1128   25-B1
  59   1.0000      -0.177335        -4.8255   29-A1
  60   1.0000      -0.174034        -4.7357   26-B1
  61   1.0000      -0.145994        -3.9727   30-A1
  62   1.0000      -0.142325        -3.8729   27-B1
  63   1.0000      -0.129846        -3.5333   31-A1
  64   1.0000      -0.116588        -3.1725    5-B2
  65   1.0000      -0.116475        -3.1694    3-A2
  66   1.0000      -0.113407        -3.0860   28-B1
  67   1.0000      -0.085045        -2.3142   32-A1
  68   1.0000      -0.068376        -1.8606   33-A1
  69   1.0000      -0.063805        -1.7362   29-B1
  70   1.0000      -0.050617        -1.3774   30-B1
  71   1.0000      -0.038120        -1.0373    4-A2
  72   1.0000      -0.037303        -1.0151    6-B2
  73   1.0000      -0.027972        -0.7612   34-A1
  74   1.0000      -0.023300        -0.6340    7-B2
  75   1.0000      -0.018706        -0.5090    5-A2
  76   1.0000      -0.005368        -0.1461   31-B1
  77   1.0000       0.004429         0.1205    8-B2
  78   1.0000       0.007947         0.2163   35-A1
  79   1.0000       0.009070         0.2468    6-A2
  80   1.0000       0.029359         0.7989   32-B1
  81   1.0000       0.030963         0.8426   36-A1
  82   1.0000       0.048363         1.3160   37-A1
  83   1.0000       0.054482         1.4825    7-A2
  84   1.0000       0.056812         1.5459    9-B2
  85   1.0000       0.064916         1.7665   10-B2
  86   1.0000       0.092063         2.5052    8-A2
  87   0.0000       0.133820         3.6414   33-B1
  88   0.0000       0.182492         4.9659   38-A1
  89   0.0000       0.182589         4.9685   34-B1
  90   0.0000       0.198659         5.4058   35-B1
  91   0.0000       0.198859         5.4112   39-A1

MULLIKEN ATOMIC CHARGES AND SPIN POPULATIONS
--------------------------------------------
   0 Cu:    0.132984    0.364332
   1 S :   -0.460660    0.173570
   2 C :    0.005259   -0.008732
   3 S :   -0.460660    0.173570
   4 C :    0.005259   -0.008732
   5 S :   -0.379797    0.157359
   6 C :    0.038173   -0.005935
   7 S :   -0.379797    0.157359
   8 C :    0.038173   -0.005935
   9 C :   -0.074276   -0.001554
  10 C :   -0.107982   -0.001352
  11 C :   -0.134043   -0.001037
  12 H :    0.060168    0.001385
  13 C :   -0.140260   -0.000607
  14 H :    0.065922    0.002477
  15 H :    0.033247    0.001016
  16 H :    0.027757    0.001244
  17 C :   -0.107982   -0.001352
  18 C :   -0.074276   -0.001554
  19 C :   -0.134043   -0.001037
  20 H :    0.060168    0.001385
  21 C :   -0.140260   -0.000607
  22 H :    0.065922    0.002477
  23 H :    0.033247    0.001016
  24 H :    0.027757    0.001244
Sum of atomic charges         :   -2.0000000

LOEWDIN ATOMIC CHARGES AND SPIN POPULATIONS
-------------------------------------------
   0 Cu:   -0.883958    0.429627
   1 S :   -0.040572    0.145427
   2 C :   -0.046152    0.005360
   3 S :   -0.040572    0.145427
   4 C :   -0.046152    0.005360
   5 S :    0.053913    0.108037
   6 C :   -0.029728    0.005742
   7 S :    0.053913    0.108037
   8 C :   -0.029728    0.005742
   9 C :    0.304753    0.004927
  10 C :    0.306858    0.003170
  11 C :    0.311342   -0.000471
  12 H :   -0.440544    0.005689
  13 C :    0.310597    0.000303
  14 H :   -0.452682    0.006558
  15 H :   -0.420442    0.000204
  16 H :   -0.415365    0.000241
  17 C :    0.306858    0.003170
  18 C :    0.304753    0.004927
  19 C :    0.311342   -0.000471
  20 H :   -0.440544    0.005689
  21 C :    0.310597    0.000303
  22 H :   -0.452682    0.006558
  23 H :   -0.420442    0.000204
  24 H :   -0.415365    0.000241

  Mayer bond orders larger than 0.100000
B(  0-Cu,  1-S ) :   0.5647 B(  0-Cu,  3-S ) :   0.5647 B(  0-Cu,  5-S ) :   0.8649
B(  0-Cu,  7-S ) :   0.8649 B(  1-S ,  2-C ) :   1.1961 B(  2-C ,  6-C ) :   1.2439
B(  2-C , 17-C ) :   1.3169 B(  3-S ,  4-C ) :   1.1961 B(  4-C ,  8-C ) :   1.2439
B(  4-C , 10-C ) :   1.3169 B(  5-S ,  6-C ) :   1.1736 B(  6-C , 18-C ) :   1.3172
B(  7-S ,  8-C ) :   1.1736 B(  8-C ,  9-C ) :   1.3172 B(  9-C , 13-C ) :   1.3590
B(  9-C , 14-H ) :   0.9659 B( 10-C , 11-C ) :   1.3652 B( 10-C , 12-H ) :   0.9749
B( 11-C , 13-C ) :   1.3390 B( 11-C , 15-H ) :   0.9876 B( 13-C , 16-H ) :   0.9899
B( 17-C , 19-C ) :   1.3652 B( 17-C , 20-H ) :   0.9749 B( 18-C , 21-C ) :   1.3590
B( 18-C , 22-H ) :   0.9659 B( 19-C , 21-C ) :   1.3390 B( 19-C , 23-H ) :   0.9876
B( 21-C , 24-H ) :   0.9899

FINAL SINGLE POINT ENERGY     -3686.916182946315

DIPOLE MOMENT
-------------
                                X             Y             Z
Electronic contribution:      0.00000       0.00000      -0.87486
Nuclear contribution   :      0.00000       0.00000       0.43430
                        -----------------------------------------
Total Dipole Moment    :      0.00000       0.00000      -0.44055
                        -----------------------------------------
Magnitude (a.u.)       :      0.44055
Magnitude (Debye)      :      1.11979

Rotational constants in cm-1:     0.033253     0.004796     0.004192
Rotational constants in MHz :   996.911638   143.787203   125.662559

                             ****ORCA TERMINATED NORMALLY****
TOTAL RUN TIME: 0 days 6 hours 24 minutes 26 seconds 91 msec
