                         Program Version 5.0.4 -  RELEASE  -
|  1> ! RIJCOSX nofrozencore ReducedPop printbasis
|  2> ! M06L ano-rcc-dzp autoaux
|  3>
|  4> %maxcore 5000
|  5> %basis
|  6> PCDTrimBas overlap
|  7> PCDTrimAuxJ Coulomb
|  8> PCDTrimAuxJK Coulomb
|  9> PCDTrimAuxC Coulomb
| 10> PCDThresh -1
| 11> end
| 12>
| 13> %basis
| 14> newgto Cu "ano-rcc-tzp" end
| 15> newgto S "ano-rcc-tzp" end
| 16> end
| 17>
| 18> %pal
| 19> nprocs 12
| 20> end
| 21>
| 22> % sym SymThresh 1e-2 end
| 23> * xyz -2 2
| 24> Cu 1.2588602999193507e-06 2.9872623606737356e-07 5.943570760172035e-06
| 25> S -0.5538427991423892 -1.580224079659768 1.6026021205173049
| 26> C 0.07147688308417716 -0.9299064083196203 3.0938415260397023
| 27> S -0.9870515179408426 -1.258970657566356 -1.6771822640749618
| 28> C -0.7501076208099245 -0.32036914102110253 -3.127107655955304
| 29> S 0.9870430675673273 1.258951045639247 1.6771936202848279
| 30> C 0.7501402385257393 0.3205680027660283 3.126705294064688
| 31> S 0.553855808083447 1.5802440078231441 -1.602589725528115
| 32> C -0.07161946486725307 0.9297989575493347 -3.0943004103029974
| 33> C 0.07358191397562967 1.6123385978816465 -4.295345882307353
| 34> C -1.2164616913966884 -0.7646420677821922 -4.357801743868012
| 35> C -1.0703567245595444 -0.08070223653159114 -5.558032851010055
| 36> H -1.8896689706346164 -2.008508118031043 -4.380373471302772
| 37> C -0.3935338649421371 1.1664099140156994 -5.525342493461885
| 38> H 0.74878353548452 2.8530052557853582 -4.252666857601994
| 39> H -1.3489174278020215 -0.36560468962706916 -6.236289965256
| 40> H -0.2918205608110676 1.581923722739228 -6.184429913251404
| 41> C -0.08002592625155688 -1.6243488227150433 4.295432005701153
| 42> C 1.2230558403521528 0.7766530893219886 4.358525867561658
| 43> C 0.3955385098902408 -1.1590990013573408 5.514909618703032
| 44> H -0.6714095300545314 -2.7105420120970583 4.256712309187195
| 45> C 1.0655510479079193 0.07546741240128066 5.547262466047356
| 46> H 1.8116917619059765 1.8647225987938798 4.376912575235358
| 47> H 0.27182060595491797 -1.6616713932389378 6.3083353735089
| 48> H 1.4021754061915315 0.4207920586253152 6.363878877869571
| 49> *
| 50>
| 51> % eprnmr
| 52> gtensor true
| 53> Nuclei = all H {aiso,adip,aorb,fgrad,rho}
| 54> Nuclei = all Cu {aiso,adip,aorb,fgrad,rho}
| 55> end
| 56>
| 57>                          ****END OF INPUT****

CARTESIAN COORDINATES (ANGSTROEM)
---------------------------------
  Cu     0.000000    0.000000    0.000006
  S      0.000000   -1.615612    1.661922
  C      0.000000   -0.711574    3.152045
  S      0.000000   -1.615634   -1.661910
  C      0.000000   -0.711397   -3.152481
  S      0.000000    1.615612    1.661922
  C      0.000000    0.711574    3.152045
  S      0.000000    1.615634   -1.661910
  C      0.000000    0.711397   -3.152481
  C      0.000000    1.352604   -4.384681
  C      0.000000   -1.352604   -4.384681
  C      0.000000   -0.709656   -5.616114
  H      0.000000   -2.766408   -4.374476
  C      0.000000    0.709656   -5.616114
  H      0.000000    2.766408   -4.374476
  H      0.000000   -1.108265   -6.293761
  H      0.000000    1.108265   -6.293761
  C      0.000000   -1.366273    4.385091
  C      0.000000    1.366273    4.385091
  C      0.000000   -0.702517    5.605370
  H      0.000000   -2.603521    4.374790
  C      0.000000    0.702517    5.605370
  H      0.000000    2.603521    4.374790
  H      0.000000   -1.185057    6.421197
  H      0.000000    1.185057    6.421197

 Total Charge           Charge          ....   -2
 Multiplicity           Mult            ....    2
 Number of Electrons    NEL             ....  175
 Basis Dimension        Dim             ....  475

ORBITAL ENERGIES
----------------
                 SPIN UP ORBITALS
  NO   OCC          E(Eh)            E(eV)    Irrep
   0   1.0000    -318.181800     -8658.1669    1-A1
   1   1.0000     -88.016628     -2395.0542    1-B2
   2   1.0000     -88.016617     -2395.0539    2-A1
   3   1.0000     -88.015209     -2395.0156    2-B2
   4   1.0000     -88.015197     -2395.0153    3-A1
   5   1.0000     -38.027082     -1034.7695    4-A1
   6   1.0000     -33.530196      -912.4030    3-B2
   7   1.0000     -33.529347      -912.3799    5-A1
   8   1.0000     -33.515618      -912.0063    1-B1
   9   1.0000      -9.843806      -267.8636    4-B2
  10   1.0000      -9.843802      -267.8635    6-A1
  11   1.0000      -9.836910      -267.6759    7-A1
  12   1.0000      -9.836581      -267.6670    5-B2
  13   1.0000      -9.833949      -267.5953    8-A1
  14   1.0000      -9.833620      -267.5864    6-B2
  15   1.0000      -9.829807      -267.4826    7-B2
  16   1.0000      -9.829803      -267.4825    9-A1
  17   1.0000      -9.811351      -266.9804   10-A1
  18   1.0000      -9.810961      -266.9698    8-B2
  19   1.0000      -9.802076      -266.7280   11-A1
  20   1.0000      -9.801728      -266.7186    9-B2
  21   1.0000      -7.585176      -206.4031   10-B2
  22   1.0000      -7.585166      -206.4029   12-A1
  23   1.0000      -7.583861      -206.3673   11-B2
  24   1.0000      -7.583851      -206.3671   13-A1
  25   1.0000      -5.508532      -149.8948   12-B2
  26   1.0000      -5.508531      -149.8948   14-A1
  27   1.0000      -5.507117      -149.8563   13-B2
  28   1.0000      -5.507117      -149.8563   15-A1
  29   1.0000      -5.503025      -149.7449   14-B2
  30   1.0000      -5.503024      -149.7449   16-A1
  31   1.0000      -5.501748      -149.7102   15-B2
  32   1.0000      -5.501748      -149.7102   17-A1
  33   1.0000      -5.501200      -149.6953    1-A2
  34   1.0000      -5.501200      -149.6953    2-B1
  35   1.0000      -5.499909      -149.6601    2-A2
  36   1.0000      -5.499909      -149.6601    3-B1
  37   1.0000      -4.024702      -109.5177   18-A1
  38   1.0000      -2.546117       -69.2834   16-B2
  39   1.0000      -2.544560       -69.2410   19-A1
  40   1.0000      -2.517249       -68.4978    4-B1
  41   1.0000      -0.596229       -16.2242   20-A1
  42   1.0000      -0.590998       -16.0819   21-A1
  43   1.0000      -0.521963       -14.2033   22-A1
  44   1.0000      -0.510125       -13.8812   23-A1
  45   1.0000      -0.489185       -13.3114   17-B2
  46   1.0000      -0.486910       -13.2495   18-B2
  47   1.0000      -0.423739       -11.5305   19-B2
  48   1.0000      -0.412579       -11.2268   20-B2
  49   1.0000      -0.401433       -10.9236   24-A1
  50   1.0000      -0.389336       -10.5944   25-A1
  51   1.0000      -0.333007        -9.0616   21-B2
  52   1.0000      -0.312744        -8.5102   22-B2
  53   1.0000      -0.309120        -8.4116   26-A1
  54   1.0000      -0.303619        -8.2619   27-A1
  55   1.0000      -0.247499        -6.7348   28-A1
  56   1.0000      -0.238764        -6.4971   29-A1
  57   1.0000      -0.191232        -5.2037   30-A1
  58   1.0000      -0.190441        -5.1822   23-B2
  59   1.0000      -0.189786        -5.1643   31-A1
  60   1.0000      -0.174714        -4.7542   24-B2
  61   1.0000      -0.136402        -3.7117   25-B2
  62   1.0000      -0.135616        -3.6903   32-A1
  63   1.0000      -0.119968        -3.2645    5-B1
  64   1.0000      -0.117802        -3.2055    6-B1
  65   1.0000      -0.112931        -3.0730   26-B2
  66   1.0000      -0.109822        -2.9884   33-A1
  67   1.0000      -0.077166        -2.0998   27-B2
  68   1.0000      -0.071232        -1.9383   34-A1
  69   1.0000      -0.069260        -1.8847   28-B2
  70   1.0000      -0.051859        -1.4112   35-A1
  71   1.0000      -0.039656        -1.0791    7-B1
  72   1.0000      -0.037885        -1.0309    8-B1
  73   1.0000      -0.032748        -0.8911   29-B2
  74   1.0000      -0.030440        -0.8283   36-A1
  75   1.0000      -0.027614        -0.7514    3-A2
  76   1.0000      -0.020818        -0.5665    4-A2
  77   1.0000      -0.003795        -0.1033    5-A2
  78   1.0000      -0.001465        -0.0399   37-A1
  79   1.0000       0.000503         0.0137    9-B1
  80   1.0000       0.017002         0.4627   38-A1
  81   1.0000       0.017754         0.4831   39-A1
  82   1.0000       0.034924         0.9503   30-B2
  83   1.0000       0.049022         1.3340    6-A2
  84   1.0000       0.051468         1.4005    7-A2
  85   1.0000       0.060556         1.6478   10-B1
  86   1.0000       0.085848         2.3360   11-B1
  87   1.0000       0.105152         2.8613   31-B2
  88   0.0000       0.183713         4.9991   40-A1
  89   0.0000       0.184831         5.0295   41-A1
  90   0.0000       0.196001         5.3335   32-B2
  91   0.0000       0.198117         5.3910   33-B2
  92   0.0000       0.201805         5.4914    8-A2

                 SPIN DOWN ORBITALS
  NO   OCC          E(Eh)            E(eV)    Irrep
   0   1.0000    -318.181626     -8658.1622    1-A1
   1   1.0000     -88.015543     -2395.0247    1-B2
   2   1.0000     -88.015533     -2395.0244    2-A1
   3   1.0000     -88.014133     -2394.9863    2-B2
   4   1.0000     -88.014121     -2394.9860    3-A1
   5   1.0000     -38.011244     -1034.3385    4-A1
   6   1.0000     -33.515064      -911.9913    3-B2
   7   1.0000     -33.514249      -911.9691    5-A1
   8   1.0000     -33.511300      -911.8888    1-B1
   9   1.0000      -9.843747      -267.8620    4-B2
  10   1.0000      -9.843742      -267.8619    6-A1
  11   1.0000      -9.837030      -267.6792    7-A1
  12   1.0000      -9.836701      -267.6702    5-B2
  13   1.0000      -9.834066      -267.5985    8-A1
  14   1.0000      -9.833737      -267.5896    6-B2
  15   1.0000      -9.829747      -267.4810    7-B2
  16   1.0000      -9.829743      -267.4809    9-A1
  17   1.0000      -9.811328      -266.9798   10-A1
  18   1.0000      -9.810937      -266.9692    8-B2
  19   1.0000      -9.802052      -266.7274   11-A1
  20   1.0000      -9.801705      -266.7179    9-B2
  21   1.0000      -7.584429      -206.3828   10-B2
  22   1.0000      -7.584420      -206.3826   12-A1
  23   1.0000      -7.583122      -206.3472   11-B2
  24   1.0000      -7.583112      -206.3470   13-A1
  25   1.0000      -5.507606      -149.8696   12-B2
  26   1.0000      -5.507605      -149.8696   14-A1
  27   1.0000      -5.506189      -149.8310   13-B2
  28   1.0000      -5.506189      -149.8310   15-A1
  29   1.0000      -5.500719      -149.6822   14-B2
  30   1.0000      -5.500719      -149.6822   16-A1
  31   1.0000      -5.500372      -149.6727    1-A2
  32   1.0000      -5.500372      -149.6727    2-B1
  33   1.0000      -5.499476      -149.6484   15-B2
  34   1.0000      -5.499476      -149.6484   17-A1
  35   1.0000      -5.499089      -149.6378    2-A2
  36   1.0000      -5.499089      -149.6378    3-B1
  37   1.0000      -3.991109      -108.6036   18-A1
  38   1.0000      -2.505564       -68.1799    4-B1
  39   1.0000      -2.504221       -68.1433   16-B2
  40   1.0000      -2.502645       -68.1004   19-A1
  41   1.0000      -0.595948       -16.2166   20-A1
  42   1.0000      -0.590663       -16.0727   21-A1
  43   1.0000      -0.520973       -14.1764   22-A1
  44   1.0000      -0.508967       -13.8497   23-A1
  45   1.0000      -0.488279       -13.2868   17-B2
  46   1.0000      -0.485855       -13.2208   18-B2
  47   1.0000      -0.420517       -11.4429   19-B2
  48   1.0000      -0.408904       -11.1268   20-B2
  49   1.0000      -0.398007       -10.8303   24-A1
  50   1.0000      -0.385972       -10.5028   25-A1
  51   1.0000      -0.330384        -8.9902   21-B2
  52   1.0000      -0.310491        -8.4489   22-B2
  53   1.0000      -0.307784        -8.3752   26-A1
  54   1.0000      -0.301845        -8.2136   27-A1
  55   1.0000      -0.247022        -6.7218   28-A1
  56   1.0000      -0.238181        -6.4812   29-A1
  57   1.0000      -0.190425        -5.1817   30-A1
  58   1.0000      -0.189216        -5.1488   23-B2
  59   1.0000      -0.188910        -5.1405   31-A1
  60   1.0000      -0.173311        -4.7160   24-B2
  61   1.0000      -0.135887        -3.6977   25-B2
  62   1.0000      -0.134078        -3.6484   32-A1
  63   1.0000      -0.119796        -3.2598    5-B1
  64   1.0000      -0.117619        -3.2006    6-B1
  65   1.0000      -0.112424        -3.0592   26-B2
  66   1.0000      -0.108495        -2.9523   33-A1
  67   1.0000      -0.075215        -2.0467   27-B2
  68   1.0000      -0.069872        -1.9013   34-A1
  69   1.0000      -0.055822        -1.5190   28-B2
  70   1.0000      -0.050648        -1.3782   35-A1
  71   1.0000      -0.037937        -1.0323    7-B1
  72   1.0000      -0.036813        -1.0017    8-B1
  73   1.0000      -0.024692        -0.6719    3-A2
  74   1.0000      -0.023686        -0.6445   36-A1
  75   1.0000      -0.019953        -0.5430    4-A2
  76   1.0000      -0.002837        -0.0772   29-B2
  77   1.0000       0.005950         0.1619    5-A2
  78   1.0000       0.009254         0.2518   37-A1
  79   1.0000       0.012722         0.3462    9-B1
  80   1.0000       0.024228         0.6593   38-A1
  81   1.0000       0.033421         0.9094   39-A1
  82   1.0000       0.043251         1.1769   30-B2
  83   1.0000       0.051958         1.4138    6-A2
  84   1.0000       0.057064         1.5528    7-A2
  85   1.0000       0.062450         1.6993   10-B1
  86   1.0000       0.090109         2.4520   11-B1
  87   0.0000       0.138122         3.7585   31-B2
  88   0.0000       0.184959         5.0330   40-A1
  89   0.0000       0.186124         5.0647   41-A1
  90   0.0000       0.196961         5.3596   32-B2
  91   0.0000       0.199827         5.4376   33-B2

MULLIKEN ATOMIC CHARGES AND SPIN POPULATIONS
--------------------------------------------
   0 Cu:    0.139362    0.373795
   1 S :   -0.412656    0.163419
   2 C :    0.035620   -0.007676
   3 S :   -0.399612    0.163850
   4 C :    0.041436   -0.007696
   5 S :   -0.412656    0.163419
   6 C :    0.035620   -0.007676
   7 S :   -0.399612    0.163850
   8 C :    0.041436   -0.007696
   9 C :   -0.080942   -0.000352
  10 C :   -0.080942   -0.000352
  11 C :   -0.560137   -0.000857
  12 H :   -0.113629    0.001099
  13 C :   -0.560137   -0.000857
  14 H :   -0.113629    0.001099
  15 H :    0.577432    0.000689
  16 H :    0.577432    0.000689
  17 C :   -0.062493   -0.000788
  18 C :   -0.062493   -0.000788
  19 C :   -0.269138   -0.000822
  20 H :   -0.052730    0.001376
  21 C :   -0.269138   -0.000822
  22 H :   -0.052730    0.001376
  23 H :    0.227168    0.000860
  24 H :    0.227168    0.000860
Sum of atomic charges         :   -2.0000000

LOEWDIN ATOMIC CHARGES AND SPIN POPULATIONS
-------------------------------------------
   0 Cu:   -0.895428    0.440846
   1 S :    0.001304    0.124524
   2 C :   -0.059480    0.004921
   3 S :   -0.006303    0.125317
   4 C :   -0.075573    0.004773
   5 S :    0.001304    0.124524
   6 C :   -0.059480    0.004921
   7 S :   -0.006303    0.125317
   8 C :   -0.075573    0.004773
   9 C :    0.261360    0.003687
  10 C :    0.261360    0.003687
  11 C :    0.560259   -0.000079
  12 H :   -0.214814    0.006447
  13 C :    0.560259   -0.000079
  14 H :   -0.214814    0.006447
  15 H :   -0.801937   -0.000176
  16 H :   -0.801937   -0.000176
  17 C :    0.266702    0.003827
  18 C :    0.266702    0.003827
  19 C :    0.403874   -0.000079
  20 H :   -0.315634    0.006431
  21 C :    0.403874   -0.000079
  22 H :   -0.315634    0.006431
  23 H :   -0.572046   -0.000015
  24 H :   -0.572046   -0.000015

  Mayer bond orders larger than 0.100000
B(  0-Cu,  1-S ) :   0.7018 B(  0-Cu,  3-S ) :   0.7013 B(  0-Cu,  5-S ) :   0.7018
B(  0-Cu,  7-S ) :   0.7013 B(  1-S ,  2-C ) :   1.1827 B(  2-C ,  6-C ) :   1.2392
B(  2-C , 17-C ) :   1.3172 B(  3-S ,  4-C ) :   1.1839 B(  4-C ,  8-C ) :   1.2290
B(  4-C , 10-C ) :   1.3285 B(  5-S ,  6-C ) :   1.1827 B(  6-C , 18-C ) :   1.3172
B(  7-S ,  8-C ) :   1.1839 B(  8-C ,  9-C ) :   1.3285 B(  9-C , 13-C ) :   1.4552
B(  9-C , 14-H ) :   0.9803 B( 10-C , 11-C ) :   1.4552 B( 10-C , 12-H ) :   0.9803
B( 11-C , 13-C ) :   1.4747 B( 11-C , 15-H ) :   0.4513 B( 13-C , 16-H ) :   0.4513
B( 17-C , 19-C ) :   1.3878 B( 17-C , 20-H ) :   1.0040 B( 18-C , 21-C ) :   1.3878
B( 18-C , 22-H ) :   1.0040 B( 19-C , 21-C ) :   1.3805 B( 19-C , 23-H ) :   0.8578
B( 21-C , 24-H ) :   0.8578

FINAL SINGLE POINT ENERGY     -3686.586983985698

DIPOLE MOMENT
-------------
                                X             Y             Z
Electronic contribution:     -0.00000       0.00000      -0.22606
Nuclear contribution   :      0.00000      -0.00000       0.23967
                        -----------------------------------------
Total Dipole Moment    :     -0.00000       0.00000       0.01360
                        -----------------------------------------
Magnitude (a.u.)       :      0.01360
Magnitude (Debye)      :      0.03458

Rotational constants in cm-1:     0.033302     0.004806     0.004200
Rotational constants in MHz :   998.373629   144.067390   125.899789

                             ****ORCA TERMINATED NORMALLY****
TOTAL RUN TIME: 0 days 5 hours 33 minutes 5 seconds 659 msec
