                         Program Version 5.0.4 -  RELEASE  -
|  1> ! RIJCOSX nofrozencore ReducedPop printbasis
|  2> ! M06L ano-rcc-dzp autoaux
|  3>
|  4> %maxcore 5000
|  5> %basis
|  6> PCDTrimBas overlap
|  7> PCDTrimAuxJ Coulomb
|  8> PCDTrimAuxJK Coulomb
|  9> PCDTrimAuxC Coulomb
| 10> PCDThresh -1
| 11> end
| 12>
| 13> %basis
| 14> newgto Cu "ano-rcc-tzp" end
| 15> newgto S "ano-rcc-tzp" end
| 16> end
| 17>
| 18> %pal
| 19> nprocs 12
| 20> end
| 21>
| 22> % sym SymThresh 1e-2 end
| 23> * xyz -2 2
| 24> Cu 0.0 0.0 0.0
| 25> S -0.8368607779902631 -0.43525170645433614 2.1171651793528343
| 26> C 0.5765959027473879 -0.5794105568604465 3.1259014960108056
| 27> S -2.1353452581596066 0.09394888912251816 -0.8964611305053491
| 28> C -1.8858984409015924 0.4264316561158262 -2.588624002395145
| 29> S 2.135331157761079 -0.09356017427620227 0.8965354133904234
| 30> C 1.8857894476695392 -0.42342696888205605 2.589198194090126
| 31> S 0.8368748427817239 0.4348639732111675 -2.1172392746548656
| 32> C -0.5764863754093299 0.5763911455794675 -3.126478501451434
| 33> C -0.44553455843859757 0.8418368728041489 -4.497122387377762
| 34> C -2.9808360583494253 0.5535945612626795 -3.4553495992228114
| 35> C -2.826705143417019 0.8153296007830741 -4.811163986828414
| 36> H -3.9745796893549445 0.42624223414807466 -3.0380456267154066
| 37> C -1.5456087995089 0.9653238340369168 -5.336812395436149
| 38> H 0.5563515990974816 0.9657937860001233 -4.895550024276253
| 39> H -3.7019439759959227 0.9182602501431254 -5.4461400226433385
| 40> H -1.4001190463303157 1.1596354995915323 -6.3955407099490955
| 41> C 0.4467111949938648 -0.8742845873441396 4.490920735618103
| 42> C 2.9796577838690768 -0.5211016929779145 3.461559879802454
| 43> C 1.5442087652419598 -0.926728179889708 5.344187973108469
| 44> H -0.5651057389449924 -0.7244627258330824 4.941668065758761
| 45> C 2.828106067860634 -0.8539497950089645 4.803783719580016
| 46> H 3.9833426231213855 -0.6678051117537833 2.991884222321104
| 47> H 1.4102279341893982 -1.438339241948262 6.342281197065422
| 48> H 3.6918287619465993 -0.6394330369177782 5.499423926589307
| 49> *
| 50>
| 51> % eprnmr
| 52> gtensor true
| 53> Nuclei = all H {aiso,adip,aorb,fgrad,rho}
| 54> Nuclei = all Cu {aiso,adip,aorb,fgrad,rho}
| 55> end
| 56>
| 57>                          ****END OF INPUT****

CARTESIAN COORDINATES (ANGSTROEM)
---------------------------------
  Cu     0.000000    0.000000   -0.000000
  S     -1.611283   -0.117991    1.661931
  C     -0.709644   -0.054751    3.151642
  S     -1.611311   -0.117597   -1.661931
  C     -0.709868   -0.051690   -3.151642
  S      1.611283    0.117991    1.661931
  C      0.709644    0.054751    3.151642
  S      1.611311    0.117597   -1.661931
  C      0.709868    0.051690   -3.151642
  C      1.374492    0.099012   -4.385461
  C     -1.374492   -0.099012   -4.385461
  C     -0.694460   -0.052235   -5.596188
  H     -2.455981   -0.189339   -4.375043
  C      0.694460    0.052235   -5.596188
  H      2.455981    0.189339   -4.375043
  H     -1.248268   -0.079584   -6.530201
  H      1.248268    0.079584   -6.530201
  C     -1.372082   -0.132003    4.385460
  C      1.372082    0.132003    4.385460
  C     -0.697325   -0.013008    5.596188
  H     -2.473899    0.055979    4.375043
  C      0.697325    0.013008    5.596188
  H      2.473899   -0.055979    4.375043
  H     -1.227580   -0.362819    6.530201
  H      1.227580    0.362819    6.530201

 Total Charge           Charge          ....   -2
 Multiplicity           Mult            ....    2
 Number of Electrons    NEL             ....  175
 Basis Dimension        Dim             ....  475

ORBITAL ENERGIES
----------------
                 SPIN UP ORBITALS
  NO   OCC          E(Eh)            E(eV)    Irrep
   0   1.0000    -318.182888     -8658.1966    1-A
   1   1.0000     -88.016589     -2395.0532    1-B
   2   1.0000     -88.016579     -2395.0529    2-A
   3   1.0000     -88.015547     -2395.0248    2-B
   4   1.0000     -88.015536     -2395.0245    3-A
   5   1.0000     -38.028130     -1034.7980    4-A
   6   1.0000     -33.531263      -912.4321    3-B
   7   1.0000     -33.530413      -912.4089    5-A
   8   1.0000     -33.516651      -912.0344    4-B
   9   1.0000      -9.834909      -267.6215    6-A
  10   1.0000      -9.834579      -267.6125    5-B
  11   1.0000      -9.833531      -267.5840    7-A
  12   1.0000      -9.833201      -267.5750    6-B
  13   1.0000      -9.826919      -267.4040    8-A
  14   1.0000      -9.826494      -267.3925    7-B
  15   1.0000      -9.824606      -267.3411    9-A
  16   1.0000      -9.824176      -267.3294    8-B
  17   1.0000      -9.819618      -267.2054    9-B
  18   1.0000      -9.819615      -267.2053   10-A
  19   1.0000      -9.817318      -267.1428   10-B
  20   1.0000      -9.817313      -267.1427   11-A
  21   1.0000      -7.585253      -206.4052   11-B
  22   1.0000      -7.585244      -206.4050   12-A
  23   1.0000      -7.584248      -206.3779   12-B
  24   1.0000      -7.584238      -206.3776   13-A
  25   1.0000      -5.508445      -149.8924   13-B
  26   1.0000      -5.508444      -149.8924   14-A
  27   1.0000      -5.507445      -149.8652   14-B
  28   1.0000      -5.507445      -149.8652   15-A
  29   1.0000      -5.503119      -149.7475   15-B
  30   1.0000      -5.503119      -149.7475   16-A
  31   1.0000      -5.502162      -149.7214   16-B
  32   1.0000      -5.502162      -149.7214   17-A
  33   1.0000      -5.501381      -149.7002   18-A
  34   1.0000      -5.501380      -149.7002   17-B
  35   1.0000      -5.500311      -149.6711   19-A
  36   1.0000      -5.500311      -149.6711   18-B
  37   1.0000      -4.025743      -109.5460   20-A
  38   1.0000      -2.547183       -69.3124   19-B
  39   1.0000      -2.545632       -69.2702   21-A
  40   1.0000      -2.518233       -68.5246   20-B
  41   1.0000      -0.590589       -16.0707   22-A
  42   1.0000      -0.590371       -16.0648   23-A
  43   1.0000      -0.505394       -13.7525   24-A
  44   1.0000      -0.504078       -13.7167   25-A
  45   1.0000      -0.490908       -13.3583   21-B
  46   1.0000      -0.489690       -13.3252   22-B
  47   1.0000      -0.410510       -11.1706   23-B
  48   1.0000      -0.407781       -11.0963   24-B
  49   1.0000      -0.388403       -10.5690   26-A
  50   1.0000      -0.381527       -10.3819   27-A
  51   1.0000      -0.322153        -8.7662   28-A
  52   1.0000      -0.317926        -8.6512   29-A
  53   1.0000      -0.299971        -8.1626   25-B
  54   1.0000      -0.294565        -8.0155   26-B
  55   1.0000      -0.232030        -6.3139   30-A
  56   1.0000      -0.220754        -6.0070   31-A
  57   1.0000      -0.190799        -5.1919   32-A
  58   1.0000      -0.189733        -5.1629   33-A
  59   1.0000      -0.177595        -4.8326   27-B
  60   1.0000      -0.173549        -4.7225   28-B
  61   1.0000      -0.146399        -3.9837   29-B
  62   1.0000      -0.138716        -3.7747   30-B
  63   1.0000      -0.131031        -3.5655   34-A
  64   1.0000      -0.117901        -3.2082   31-B
  65   1.0000      -0.114444        -3.1142   32-B
  66   1.0000      -0.112812        -3.0698   35-A
  67   1.0000      -0.086850        -2.3633   36-A
  68   1.0000      -0.070009        -1.9051   33-B
  69   1.0000      -0.066219        -1.8019   34-B
  70   1.0000      -0.063741        -1.7345   37-A
  71   1.0000      -0.039507        -1.0750   35-B
  72   1.0000      -0.037815        -1.0290   36-B
  73   1.0000      -0.031684        -0.8622   37-B
  74   1.0000      -0.031622        -0.8605   38-A
  75   1.0000      -0.026459        -0.7200   39-A
  76   1.0000      -0.018608        -0.5063   40-A
  77   1.0000      -0.004013        -0.1092   41-A
  78   1.0000      -0.001629        -0.0443   42-A
  79   1.0000      -0.000086        -0.0023   38-B
  80   1.0000       0.016971         0.4618   43-A
  81   1.0000       0.017655         0.4804   44-A
  82   1.0000       0.033292         0.9059   39-B
  83   1.0000       0.048682         1.3247   45-A
  84   1.0000       0.050889         1.3848   46-A
  85   1.0000       0.060781         1.6539   40-B
  86   1.0000       0.085776         2.3341   41-B
  87   1.0000       0.103597         2.8190   42-B
  88   0.0000       0.180891         4.9223   47-A
  89   0.0000       0.181691         4.9441   48-A
  90   0.0000       0.193108         5.2547   43-B
  91   0.0000       0.196342         5.3427   44-B
  92   0.0000       0.197862         5.3841   45-B

                 SPIN DOWN ORBITALS
  NO   OCC          E(Eh)            E(eV)    Irrep
   0   1.0000    -318.182714     -8658.1918    1-A
   1   1.0000     -88.015521     -2395.0241    1-B
   2   1.0000     -88.015511     -2395.0238    2-A
   3   1.0000     -88.014474     -2394.9956    2-B
   4   1.0000     -88.014462     -2394.9953    3-A
   5   1.0000     -38.012255     -1034.3660    4-A
   6   1.0000     -33.516098      -912.0194    3-B
   7   1.0000     -33.515280      -911.9971    5-A
   8   1.0000     -33.512323      -911.9167    4-B
   9   1.0000      -9.835020      -267.6245    6-A
  10   1.0000      -9.834690      -267.6155    5-B
  11   1.0000      -9.833646      -267.5871    7-A
  12   1.0000      -9.833315      -267.5781    6-B
  13   1.0000      -9.826899      -267.4035    8-A
  14   1.0000      -9.826475      -267.3920    7-B
  15   1.0000      -9.824584      -267.3405    9-A
  16   1.0000      -9.824154      -267.3288    8-B
  17   1.0000      -9.819564      -267.2039    9-B
  18   1.0000      -9.819560      -267.2038   10-A
  19   1.0000      -9.817259      -267.1412   10-B
  20   1.0000      -9.817255      -267.1411   11-A
  21   1.0000      -7.584524      -206.3854   11-B
  22   1.0000      -7.584515      -206.3851   12-A
  23   1.0000      -7.583515      -206.3579   12-B
  24   1.0000      -7.583505      -206.3577   13-A
  25   1.0000      -5.507518      -149.8672   13-B
  26   1.0000      -5.507517      -149.8672   14-A
  27   1.0000      -5.506513      -149.8398   14-B
  28   1.0000      -5.506512      -149.8398   15-A
  29   1.0000      -5.500894      -149.6869   15-B
  30   1.0000      -5.500894      -149.6869   16-A
  31   1.0000      -5.500555      -149.6777   17-A
  32   1.0000      -5.500554      -149.6777   16-B
  33   1.0000      -5.499914      -149.6603   17-B
  34   1.0000      -5.499913      -149.6602   18-A
  35   1.0000      -5.499495      -149.6489   19-A
  36   1.0000      -5.499495      -149.6489   18-B
  37   1.0000      -3.992005      -108.6280   20-A
  38   1.0000      -2.506519       -68.2059   19-B
  39   1.0000      -2.505118       -68.1677   20-B
  40   1.0000      -2.503541       -68.1248   21-A
  41   1.0000      -0.590215       -16.0606   22-A
  42   1.0000      -0.590010       -16.0550   23-A
  43   1.0000      -0.504067       -13.7164   24-A
  44   1.0000      -0.502806       -13.6820   25-A
  45   1.0000      -0.489865       -13.3299   21-B
  46   1.0000      -0.488609       -13.2957   22-B
  47   1.0000      -0.406532       -11.0623   23-B
  48   1.0000      -0.403709       -10.9855   24-B
  49   1.0000      -0.385163       -10.4808   26-A
  50   1.0000      -0.378325       -10.2948   27-A
  51   1.0000      -0.320886        -8.7318   28-A
  52   1.0000      -0.316505        -8.6125   29-A
  53   1.0000      -0.298096        -8.1116   25-B
  54   1.0000      -0.292401        -7.9566   26-B
  55   1.0000      -0.231410        -6.2970   30-A
  56   1.0000      -0.220095        -5.9891   31-A
  57   1.0000      -0.189820        -5.1653   32-A
  58   1.0000      -0.188828        -5.1383   33-A
  59   1.0000      -0.177023        -4.8170   27-B
  60   1.0000      -0.172757        -4.7010   28-B
  61   1.0000      -0.145456        -3.9581   29-B
  62   1.0000      -0.137493        -3.7414   30-B
  63   1.0000      -0.129751        -3.5307   34-A
  64   1.0000      -0.117715        -3.2032   31-B
  65   1.0000      -0.113941        -3.1005   32-B
  66   1.0000      -0.111900        -3.0449   35-A
  67   1.0000      -0.085506        -2.3267   36-A
  68   1.0000      -0.068492        -1.8638   33-B
  69   1.0000      -0.062088        -1.6895   37-A
  70   1.0000      -0.052353        -1.4246   34-B
  71   1.0000      -0.037709        -1.0261   35-B
  72   1.0000      -0.035207        -0.9580   36-B
  73   1.0000      -0.025624        -0.6973   38-A
  74   1.0000      -0.022788        -0.6201   39-A
  75   1.0000      -0.016947        -0.4612   40-A
  76   1.0000      -0.004007        -0.1090   37-B
  77   1.0000       0.005596         0.1523   41-A
  78   1.0000       0.008970         0.2441   42-A
  79   1.0000       0.012133         0.3302   38-B
  80   1.0000       0.024470         0.6659   43-A
  81   1.0000       0.032677         0.8892   44-A
  82   1.0000       0.041625         1.1327   39-B
  83   1.0000       0.051505         1.4015   45-A
  84   1.0000       0.056420         1.5353   46-A
  85   1.0000       0.062638         1.7045   40-B
  86   1.0000       0.089947         2.4476   41-B
  87   0.0000       0.136648         3.7184   42-B
  88   0.0000       0.182019         4.9530   47-A
  89   0.0000       0.182675         4.9709   48-A
  90   0.0000       0.193257         5.2588   43-B
  91   0.0000       0.198257         5.3949   44-B

MULLIKEN ATOMIC CHARGES AND SPIN POPULATIONS
--------------------------------------------
   0 Cu:    0.141936    0.375402
   1 S :   -0.415055    0.162728
   2 C :    0.042157   -0.007675
   3 S :   -0.423649    0.163655
   4 C :    0.023145   -0.007560
   5 S :   -0.415055    0.162728
   6 C :    0.042157   -0.007675
   7 S :   -0.423649    0.163655
   8 C :    0.023145   -0.007560
   9 C :   -0.091316   -0.001577
  10 C :   -0.091316   -0.001577
  11 C :   -0.137893   -0.000876
  12 H :    0.064743    0.002007
  13 C :   -0.137893   -0.000876
  14 H :    0.064743    0.002007
  15 H :    0.031549    0.001098
  16 H :    0.031549    0.001098
  17 C :   -0.084782   -0.001363
  18 C :   -0.084782   -0.001363
  19 C :   -0.130879   -0.001028
  20 H :    0.043567    0.001721
  21 C :   -0.130879   -0.001028
  22 H :    0.043567    0.001721
  23 H :    0.007445    0.001169
  24 H :    0.007445    0.001169
Sum of atomic charges         :   -2.0000000

LOEWDIN ATOMIC CHARGES AND SPIN POPULATIONS
-------------------------------------------
   0 Cu:   -0.893289    0.442137
   1 S :    0.011074    0.123952
   2 C :   -0.042662    0.005305
   3 S :    0.009814    0.124543
   4 C :   -0.038227    0.005168
   5 S :    0.011074    0.123952
   6 C :   -0.042662    0.005305
   7 S :    0.009814    0.124543
   8 C :   -0.038227    0.005168
   9 C :    0.306751    0.003902
  10 C :    0.306751    0.003902
  11 C :    0.312037   -0.000126
  12 H :   -0.446938    0.006285
  13 C :    0.312037   -0.000126
  14 H :   -0.446938    0.006285
  15 H :   -0.418015    0.000204
  16 H :   -0.418015    0.000204
  17 C :    0.284304    0.003715
  18 C :    0.284304    0.003715
  19 C :    0.279017   -0.000340
  20 H :   -0.422312    0.006074
  21 C :    0.279017   -0.000340
  22 H :   -0.422312    0.006074
  23 H :   -0.388199    0.000251
  24 H :   -0.388199    0.000251

  Mayer bond orders larger than 0.100000
B(  0-Cu,  1-S ) :   0.6994 B(  0-Cu,  3-S ) :   0.7025 B(  0-Cu,  5-S ) :   0.6994
B(  0-Cu,  7-S ) :   0.7025 B(  1-S ,  2-C ) :   1.1874 B(  2-C ,  6-C ) :   1.2341
B(  2-C , 17-C ) :   1.3192 B(  3-S ,  4-C ) :   1.1846 B(  4-C ,  8-C ) :   1.2443
B(  4-C , 10-C ) :   1.3181 B(  5-S ,  6-C ) :   1.1874 B(  6-C , 18-C ) :   1.3192
B(  7-S ,  8-C ) :   1.1846 B(  8-C ,  9-C ) :   1.3181 B(  9-C , 13-C ) :   1.3627
B(  9-C , 14-H ) :   0.9697 B( 10-C , 11-C ) :   1.3627 B( 10-C , 12-H ) :   0.9697
B( 11-C , 13-C ) :   1.3391 B( 11-C , 15-H ) :   0.9882 B( 13-C , 16-H ) :   0.9882
B( 17-C , 19-C ) :   1.3505 B( 17-C , 20-H ) :   0.9841 B( 18-C , 21-C ) :   1.3505
B( 18-C , 22-H ) :   0.9841 B( 19-C , 21-C ) :   1.3300 B( 19-C , 23-H ) :   1.0008
B( 21-C , 24-H ) :   1.0008

FINAL SINGLE POINT ENERGY     -3686.907353813841

DIPOLE MOMENT
-------------
                                X             Y             Z
Electronic contribution:     -0.00000      -0.00000      -0.22371
Nuclear contribution   :      0.00000      -0.00000       0.00000
                        -----------------------------------------
Total Dipole Moment    :     -0.00000      -0.00000      -0.22371
                        -----------------------------------------
Magnitude (a.u.)       :      0.22371
Magnitude (Debye)      :      0.56862

Rotational constants in cm-1:     0.033402     0.004803     0.004200
Rotational constants in MHz :  1001.353987   144.005112   125.919615

                             ****ORCA TERMINATED NORMALLY****
TOTAL RUN TIME: 0 days 6 hours 34 minutes 32 seconds 698 msec
