                         Program Version 5.0.4 -  RELEASE  -
|  1> ! RIJCOSX nofrozencore ReducedPop printbasis
|  2> ! M06L ano-rcc-dzp autoaux
|  3>
|  4> %maxcore 5000
|  5> %basis
|  6> PCDTrimBas overlap
|  7> PCDTrimAuxJ Coulomb
|  8> PCDTrimAuxJK Coulomb
|  9> PCDTrimAuxC Coulomb
| 10> PCDThresh -1
| 11> end
| 12>
| 13> %basis
| 14> newgto Cu "ano-rcc-tzp" end
| 15> newgto S "ano-rcc-tzp" end
| 16> end
| 17>
| 18> %pal
| 19> nprocs 12
| 20> end
| 21>
| 22> % sym SymThresh 1e-2 end
| 23> * xyz -2 2
| 24> Cu 8.03437486155348e-05 0.00011185252689862423 -0.00017291585897423145
| 25> S -1.2837515450320747 -1.9024321138227656 0.28951495654560877
| 26> C -1.6359591361567853 -2.5066153358302183 -1.3962804411832563
| 27> S 0.14153245271242182 0.3179011331145464 2.2897798454881406
| 28> C 1.1180219399245641 1.784358278418252 2.4852685957830727
| 29> S -0.1485895957373701 -0.32863903943021133 -2.2941922416944474
| 30> C -1.0661218495094722 -1.7046722977800493 -2.437436805458716
| 31> S 1.287687861133151 1.908801341265944 -0.2788998597806484
| 32> C 1.5986665338055759 2.4474813734602434 1.3216436053158314
| 33> C 2.371777978871013 3.6112452621052498 1.5350745217822224
| 34> C 1.4107009530486596 2.2799924999579715 3.7480592990040864
| 35> C 2.1521314477307834 3.3951880168543096 3.93387451585064
| 36> H 1.0492863396017913 1.7822282485577512 4.641551901411084
| 37> C 2.658734031929175 4.100431722581657 2.8428010776974286
| 38> H 2.720749386688511 4.089435839427787 0.6200528895139941
| 39> H 2.2963980053278985 3.6593784515045593 4.983139660248561
| 40> H 3.24753883068689 4.990201747780586 3.079251115621689
| 41> C -2.3825804276117064 -3.6305045458800986 -1.6024181064112315
| 42> C -1.3708214403631684 -2.2203650063767624 -3.745702532110521
| 43> C -2.639669116652536 -4.06952194778596 -2.7900696380757584
| 44> H -2.83507681072934 -4.270323821260535 -0.8403184157446407
| 45> C -2.186391768112807 -3.4473102100331783 -3.9551422677192742
| 46> H -0.9063396584566262 -1.5623918749053847 -4.502084004969073
| 47> H -3.262995011814978 -4.991054098068739 -2.6023948606517853
| 48> H -2.55482699597671 -4.038713782245363 -4.846749898228087
| 49> *
| 50>
| 51> % eprnmr
| 52> gtensor true
| 53> Nuclei = all H {aiso,adip,aorb,fgrad,rho}
| 54> Nuclei = all Cu {aiso,adip,aorb,fgrad,rho}
| 55> end
| 56>
| 57>                          ****END OF INPUT****

CARTESIAN COORDINATES (ANGSTROEM)
---------------------------------
  Cu     0.000136   -0.000174    0.000000
  S     -2.292439    0.309531    0.000000
  C     -3.005037   -1.370706    0.000000
  S      0.362758    2.287486    0.000000
  C      2.126208    2.467733    0.000000
  S     -0.375645   -2.291788    0.000000
  C     -2.030707   -2.420713    0.000000
  S      2.300013   -0.298978    0.000000
  C      2.934507    1.296654    0.000000
  C      4.333454    1.498016    0.000000
  C      2.711822    3.725911    0.000000
  C      4.052549    3.900152    0.000000
  H      2.104910    4.625008    0.000000
  C      4.910917    2.801217    0.000000
  H      4.916993    0.577585    0.000000
  H      4.361434    4.947127    0.000000
  H      5.979863    3.028472    0.000000
  C     -4.356051   -1.565188    0.000000
  C     -2.640070   -3.724176    0.000000
  C     -4.874170   -2.748784    0.000000
  H     -5.132811   -0.796058    0.000000
  C     -4.115103   -3.920885    0.000000
  H     -1.841508   -4.487775    0.000000
  H     -5.985032   -2.551393    0.000000
  H     -4.819218   -4.806711    0.000000

 Total Charge           Charge          ....   -2
 Multiplicity           Mult            ....    2
 Number of Electrons    NEL             ....  175
 Basis Dimension        Dim             ....  475

ORBITAL ENERGIES
----------------
                 SPIN UP ORBITALS
  NO   OCC          E(Eh)            E(eV)    Irrep
   0   1.0000    -318.182660     -8658.1904    1-A'
   1   1.0000     -88.018122     -2395.0949    2-A'
   2   1.0000     -88.016266     -2395.0444    3-A'
   3   1.0000     -88.014556     -2394.9978    4-A'
   4   1.0000     -88.012572     -2394.9438    5-A'
   5   1.0000     -38.027818     -1034.7895    6-A'
   6   1.0000     -33.530960      -912.4238    7-A'
   7   1.0000     -33.530109      -912.4007    8-A'
   8   1.0000     -33.516341      -912.0260    1-A"
   9   1.0000      -9.841674      -267.8056    9-A'
  10   1.0000      -9.836505      -267.6649   10-A'
  11   1.0000      -9.833996      -267.5966   11-A'
  12   1.0000      -9.833882      -267.5935   12-A'
  13   1.0000      -9.833024      -267.5702   13-A'
  14   1.0000      -9.832514      -267.5563   14-A'
  15   1.0000      -9.830215      -267.4938   15-A'
  16   1.0000      -9.823399      -267.3083   16-A'
  17   1.0000      -9.819907      -267.2132   17-A'
  18   1.0000      -9.814579      -267.0683   18-A'
  19   1.0000      -9.811224      -266.9770   19-A'
  20   1.0000      -9.803255      -266.7601   20-A'
  21   1.0000      -7.588821      -206.5023   21-A'
  22   1.0000      -7.585574      -206.4140   22-A'
  23   1.0000      -7.582599      -206.3330   23-A'
  24   1.0000      -7.579878      -206.2590   24-A'
  25   1.0000      -5.511701      -149.9810   25-A'
  26   1.0000      -5.508693      -149.8992   26-A'
  27   1.0000      -5.506489      -149.8392   27-A'
  28   1.0000      -5.505909      -149.8234   28-A'
  29   1.0000      -5.504925      -149.7966    2-A"
  30   1.0000      -5.503385      -149.7547   29-A'
  31   1.0000      -5.503268      -149.7515   30-A'
  32   1.0000      -5.501644      -149.7074    3-A"
  33   1.0000      -5.500632      -149.6798   31-A'
  34   1.0000      -5.498643      -149.6257    4-A"
  35   1.0000      -5.497980      -149.6076   32-A'
  36   1.0000      -5.495952      -149.5525    5-A"
  37   1.0000      -4.025414      -109.5371   33-A'
  38   1.0000      -2.546852       -69.3034   34-A'
  39   1.0000      -2.545316       -69.2616   35-A'
  40   1.0000      -2.517889       -68.5153    6-A"
  41   1.0000      -0.594907       -16.1882   36-A'
  42   1.0000      -0.591341       -16.0912   37-A'
  43   1.0000      -0.519362       -14.1326   38-A'
  44   1.0000      -0.507810       -13.8182   39-A'
  45   1.0000      -0.488321       -13.2879   40-A'
  46   1.0000      -0.478754       -13.0276   41-A'
  47   1.0000      -0.416114       -11.3230   42-A'
  48   1.0000      -0.409764       -11.1503   43-A'
  49   1.0000      -0.387430       -10.5425   44-A'
  50   1.0000      -0.380608       -10.3569   45-A'
  51   1.0000      -0.325271        -8.8511   46-A'
  52   1.0000      -0.321606        -8.7514   47-A'
  53   1.0000      -0.298647        -8.1266   48-A'
  54   1.0000      -0.292373        -7.9559   49-A'
  55   1.0000      -0.233169        -6.3448   50-A'
  56   1.0000      -0.227804        -6.1989   51-A'
  57   1.0000      -0.194387        -5.2895   52-A'
  58   1.0000      -0.191532        -5.2118   53-A'
  59   1.0000      -0.174923        -4.7599   54-A'
  60   1.0000      -0.163364        -4.4454   55-A'
  61   1.0000      -0.145008        -3.9459   56-A'
  62   1.0000      -0.135931        -3.6989   57-A'
  63   1.0000      -0.130956        -3.5635   58-A'
  64   1.0000      -0.120545        -3.2802    7-A"
  65   1.0000      -0.118438        -3.2229    8-A"
  66   1.0000      -0.111682        -3.0390   59-A'
  67   1.0000      -0.087281        -2.3750   60-A'
  68   1.0000      -0.073293        -1.9944   61-A'
  69   1.0000      -0.067402        -1.8341   62-A'
  70   1.0000      -0.054344        -1.4788   63-A'
  71   1.0000      -0.047427        -1.2906    9-A"
  72   1.0000      -0.040336        -1.0976   10-A"
  73   1.0000      -0.032493        -0.8842   64-A'
  74   1.0000      -0.026752        -0.7280   65-A'
  75   1.0000      -0.024231        -0.6594   11-A"
  76   1.0000      -0.016758        -0.4560   12-A"
  77   1.0000      -0.003515        -0.0957   13-A"
  78   1.0000      -0.001253        -0.0341   66-A'
  79   1.0000       0.000746         0.0203   14-A"
  80   1.0000       0.017208         0.4683   67-A'
  81   1.0000       0.018433         0.5016   68-A'
  82   1.0000       0.034219         0.9312   69-A'
  83   1.0000       0.049118         1.3366   15-A"
  84   1.0000       0.051211         1.3935   16-A"
  85   1.0000       0.061711         1.6792   17-A"
  86   1.0000       0.086721         2.3598   18-A"
  87   1.0000       0.103809         2.8248   70-A'
  88   0.0000       0.180191         4.9033   71-A'
  89   0.0000       0.180860         4.9215   72-A'
  90   0.0000       0.193386         5.2623   19-A"
  91   0.0000       0.196392         5.3441   73-A'
  92   0.0000       0.196543         5.3482   74-A'

                 SPIN DOWN ORBITALS
  NO   OCC          E(Eh)            E(eV)    Irrep
   0   1.0000    -318.182485     -8658.1856    1-A'
   1   1.0000     -88.017120     -2395.0676    2-A'
   2   1.0000     -88.015241     -2395.0165    3-A'
   3   1.0000     -88.013435     -2394.9673    4-A'
   4   1.0000     -88.011453     -2394.9134    5-A'
   5   1.0000     -38.011969     -1034.3583    6-A'
   6   1.0000     -33.515819      -912.0118    7-A'
   7   1.0000     -33.515000      -911.9895    8-A'
   8   1.0000     -33.512022      -911.9085    1-A"
   9   1.0000      -9.841643      -267.8047    9-A'
  10   1.0000      -9.836614      -267.6679   10-A'
  11   1.0000      -9.833992      -267.5965   11-A'
  12   1.0000      -9.833895      -267.5939   12-A'
  13   1.0000      -9.833140      -267.5733   13-A'
  14   1.0000      -9.832634      -267.5596   14-A'
  15   1.0000      -9.830194      -267.4932   15-A'
  16   1.0000      -9.823331      -267.3064   16-A'
  17   1.0000      -9.819884      -267.2126   17-A'
  18   1.0000      -9.814558      -267.0677   18-A'
  19   1.0000      -9.811174      -266.9756   19-A'
  20   1.0000      -9.803226      -266.7593   20-A'
  21   1.0000      -7.588129      -206.4835   21-A'
  22   1.0000      -7.584869      -206.3948   22-A'
  23   1.0000      -7.581832      -206.3121   23-A'
  24   1.0000      -7.579113      -206.2382   24-A'
  25   1.0000      -5.510819      -149.9570   25-A'
  26   1.0000      -5.507802      -149.8749   26-A'
  27   1.0000      -5.504933      -149.7968   27-A'
  28   1.0000      -5.504387      -149.7820   28-A'
  29   1.0000      -5.504159      -149.7758    2-A"
  30   1.0000      -5.502294      -149.7250   29-A'
  31   1.0000      -5.501225      -149.6959   30-A'
  32   1.0000      -5.500863      -149.6861    3-A"
  33   1.0000      -5.498280      -149.6158   31-A'
  34   1.0000      -5.497790      -149.6025    4-A"
  35   1.0000      -5.495636      -149.5439   32-A'
  36   1.0000      -5.495099      -149.5293    5-A"
  37   1.0000      -3.991728      -108.6204   33-A'
  38   1.0000      -2.506187       -68.1968    6-A"
  39   1.0000      -2.504866       -68.1609   34-A'
  40   1.0000      -2.503285       -68.1179   35-A'
  41   1.0000      -0.594576       -16.1792   36-A'
  42   1.0000      -0.590991       -16.0817   37-A'
  43   1.0000      -0.517908       -14.0930   38-A'
  44   1.0000      -0.506539       -13.7836   39-A'
  45   1.0000      -0.487289       -13.2598   40-A'
  46   1.0000      -0.477810       -13.0019   41-A'
  47   1.0000      -0.412639       -11.2285   42-A'
  48   1.0000      -0.405834       -11.0433   43-A'
  49   1.0000      -0.384162       -10.4536   44-A'
  50   1.0000      -0.377465       -10.2713   45-A'
  51   1.0000      -0.323339        -8.7985   46-A'
  52   1.0000      -0.319622        -8.6974   47-A'
  53   1.0000      -0.296843        -8.0775   48-A'
  54   1.0000      -0.290731        -7.9112   49-A'
  55   1.0000      -0.232588        -6.3290   50-A'
  56   1.0000      -0.227100        -6.1797   51-A'
  57   1.0000      -0.193424        -5.2633   52-A'
  58   1.0000      -0.190648        -5.1878   53-A'
  59   1.0000      -0.174236        -4.7412   54-A'
  60   1.0000      -0.162470        -4.4210   55-A'
  61   1.0000      -0.144027        -3.9192   56-A'
  62   1.0000      -0.134590        -3.6624   57-A'
  63   1.0000      -0.129666        -3.5284   58-A'
  64   1.0000      -0.120385        -3.2758    7-A"
  65   1.0000      -0.118264        -3.2181    8-A"
  66   1.0000      -0.110656        -3.0111   59-A'
  67   1.0000      -0.086233        -2.3465   60-A'
  68   1.0000      -0.069971        -1.9040   61-A'
  69   1.0000      -0.063088        -1.7167   62-A'
  70   1.0000      -0.046000        -1.2517    9-A"
  71   1.0000      -0.041511        -1.1296   63-A'
  72   1.0000      -0.038865        -1.0576   10-A"
  73   1.0000      -0.022199        -0.6041   64-A'
  74   1.0000      -0.021337        -0.5806   11-A"
  75   1.0000      -0.014978        -0.4076   12-A"
  76   1.0000      -0.004080        -0.1110   65-A'
  77   1.0000       0.005835         0.1588   13-A"
  78   1.0000       0.009539         0.2596   66-A'
  79   1.0000       0.012638         0.3439   14-A"
  80   1.0000       0.025336         0.6894   67-A'
  81   1.0000       0.032685         0.8894   68-A'
  82   1.0000       0.042591         1.1589   69-A'
  83   1.0000       0.051928         1.4130   15-A"
  84   1.0000       0.056703         1.5430   16-A"
  85   1.0000       0.063656         1.7322   17-A"
  86   1.0000       0.090895         2.4734   18-A"
  87   0.0000       0.136715         3.7202   70-A'
  88   0.0000       0.181309         4.9337   71-A'
  89   0.0000       0.182009         4.9527   72-A'
  90   0.0000       0.193523         5.2660   19-A"
  91   0.0000       0.198211         5.3936   73-A'

MULLIKEN ATOMIC CHARGES AND SPIN POPULATIONS
--------------------------------------------
   0 Cu:    0.141497    0.374969
   1 S :   -0.446430    0.174894
   2 C :   -0.035400   -0.008845
   3 S :   -0.429968    0.172314
   4 C :    0.002631   -0.008595
   5 S :   -0.391647    0.148312
   6 C :    0.082907   -0.006680
   7 S :   -0.419668    0.155404
   8 C :    0.046458   -0.006830
   9 C :   -0.121654   -0.001250
  10 C :   -0.051181   -0.001679
  11 C :   -0.084784   -0.000886
  12 H :    0.054876    0.001923
  13 C :   -0.192983   -0.000943
  14 H :    0.072774    0.002107
  15 H :    0.028532    0.001313
  16 H :    0.026798    0.000979
  17 C :    0.015133   -0.001227
  18 C :   -0.157715    0.000054
  19 C :    0.008823   -0.001160
  20 H :    0.030863    0.001101
  21 C :   -0.268535   -0.000594
  22 H :    0.081946    0.002275
  23 H :    0.002922    0.001902
  24 H :    0.003807    0.001143
Sum of atomic charges         :   -2.0000000

LOEWDIN ATOMIC CHARGES AND SPIN POPULATIONS
-------------------------------------------
   0 Cu:   -0.891937    0.441768
   1 S :   -0.017786    0.134095
   2 C :    0.007799    0.003848
   3 S :    0.000460    0.132063
   4 C :   -0.022271    0.004848
   5 S :    0.044864    0.112218
   6 C :   -0.080137    0.006113
   7 S :    0.020893    0.117360
   8 C :   -0.052430    0.005167
   9 C :    0.318500    0.004010
  10 C :    0.290139    0.003789
  11 C :    0.296912   -0.000091
  12 H :   -0.433679    0.005944
  13 C :    0.321551   -0.000185
  14 H :   -0.459981    0.006840
  15 H :   -0.407862    0.000248
  16 H :   -0.421604    0.000173
  17 C :    0.256933    0.003301
  18 C :    0.332103    0.004873
  19 C :    0.258691   -0.000116
  20 H :   -0.411758    0.005133
  21 C :    0.320447    0.000059
  22 H :   -0.479579    0.007806
  23 H :   -0.382906    0.000408
  24 H :   -0.407360    0.000326

  Mayer bond orders larger than 0.100000
B(  0-Cu,  1-S ) :   0.7223 B(  0-Cu,  3-S ) :   0.7129 B(  0-Cu,  5-S ) :   0.6755
B(  0-Cu,  7-S ) :   0.6914 B(  1-S ,  2-C ) :   1.1268 B(  2-C ,  6-C ) :   1.2352
B(  2-C , 17-C ) :   1.3213 B(  3-S ,  4-C ) :   1.1630 B(  4-C ,  8-C ) :   1.2443
B(  4-C , 10-C ) :   1.3177 B(  5-S ,  6-C ) :   1.2602 B(  6-C , 18-C ) :   1.3088
B(  7-S ,  8-C ) :   1.2048 B(  8-C ,  9-C ) :   1.3176 B(  9-C , 13-C ) :   1.3674
B(  9-C , 14-H ) :   0.9650 B( 10-C , 11-C ) :   1.3545 B( 10-C , 12-H ) :   0.9729
B( 11-C , 13-C ) :   1.3380 B( 11-C , 15-H ) :   0.9848 B( 13-C , 16-H ) :   0.9943
B( 17-C , 19-C ) :   1.3305 B( 17-C , 20-H ) :   0.9792 B( 18-C , 21-C ) :   1.3635
B( 18-C , 22-H ) :   0.9579 B( 19-C , 21-C ) :   1.3307 B( 19-C , 23-H ) :   0.9858
B( 21-C , 24-H ) :   1.0060

FINAL SINGLE POINT ENERGY     -3686.865776525468

DIPOLE MOMENT
-------------
                                X             Y             Z
Electronic contribution:      0.53541      -0.44643      -0.00000
Nuclear contribution   :     -0.39024       0.50382       0.00000
                        -----------------------------------------
Total Dipole Moment    :      0.14517       0.05740      -0.00000
                        -----------------------------------------
Magnitude (a.u.)       :      0.15610
Magnitude (Debye)      :      0.39678

Rotational constants in cm-1:     0.033405     0.004803     0.004199
Rotational constants in MHz :  1001.444201   143.996620   125.894396

                             ****ORCA TERMINATED NORMALLY****
TOTAL RUN TIME: 0 days 7 hours 15 minutes 54 seconds 337 msec
