                         Program Version 5.0.4 -  RELEASE  -
|  1> ! RIJCOSX nofrozencore ReducedPop printbasis
|  2> ! M06L ano-rcc-dzp autoaux
|  3>
|  4> %maxcore 5000
|  5> %basis
|  6> PCDTrimBas overlap
|  7> PCDTrimAuxJ Coulomb
|  8> PCDTrimAuxJK Coulomb
|  9> PCDTrimAuxC Coulomb
| 10> PCDThresh -1
| 11> end
| 12>
| 13> %basis
| 14> newgto Cu "ano-rcc-tzp" end
| 15> newgto S "ano-rcc-tzp" end
| 16> end
| 17>
| 18> %pal
| 19> nprocs 12
| 20> end
| 21>
| 22> % sym SymThresh 1e-2 end
| 23> * xyz -2 2
| 24> Cu -6.70831211606662e-05 -5.100942499773582e-06 2.6150243611817122e-05
| 25> S 1.4062658424639272 1.2435921370568304 -1.3616524056203358
| 26> C 0.41405680370734893 2.5213593760926027 -1.9433134476737344
| 27> S 1.6988217419551364 -1.4907588634547027 0.49709274970447953
| 28> C 0.9553836555697859 -2.7009401070730834 1.6125216638877
| 29> S -1.6979202071359594 1.4943061543637408 -0.49993378264629224
| 30> C -0.956830770654223 2.671248473383932 -1.5907871555702424
| 31> S -1.404430505141831 -1.2475758838174036 1.3638878453224397
| 32> C -0.4238592122086451 -2.4898399334073353 1.9240439410535883
| 33> C -0.9690718724727677 -3.4734725993803868 2.8108560001452925
| 34> C 1.6850610952605762 -3.7472121207733986 2.1165637642074855
| 35> C 1.1664523570299437 -4.636241115347951 2.926748698269205
| 36> H 2.7359589029163005 -3.9411684435036074 1.9028993267281347
| 37> C -0.1660175506740073 -4.584978438822141 3.3369727811932024
| 38> H -2.027973788598564 -3.266028718517347 3.017552497956933
| 39> H 1.9781621153330833 -5.358471163260053 3.171372924815435
| 40> H -0.40135393422439636 -5.433188254775438 4.0229353915663175
| 41> C 0.9508289308161454 3.492788451848751 -2.818560915468218
| 42> C -1.6990035963245191 3.7304553417533364 -2.0998952714755457
| 43> C 0.17577086418205096 4.5661081158772605 -3.3267392903142445
| 44> H 2.000015734218961 3.356562369588146 -3.072966765696369
| 45> C -1.1601361700860993 4.6539342458933906 -2.941529433399517
| 46> H -2.743705060435873 3.847199759284204 -1.8330515368292704
| 47> H 0.5475609913412285 5.336777274904254 -4.002975697492673
| 48> H -1.845413318042216 5.434315202015542 -3.2701755327419675
| 49> *
| 50>
| 51> % eprnmr
| 52> gtensor true
| 53> Nuclei = all H {aiso,adip,aorb,fgrad,rho}
| 54> Nuclei = all Cu {aiso,adip,aorb,fgrad,rho}
| 55> end
| 56>
| 57>                          ****END OF INPUT****

CARTESIAN COORDINATES (ANGSTROEM)
---------------------------------
  Cu    -0.000071   -0.000013    0.000000
  S      1.618956    1.660476    0.000000
  C      0.722980    3.127693    0.000000
  S      1.613708   -1.658736    0.000000
  C      0.694661   -3.213333    0.000000
  S     -1.612356    1.663167    0.000000
  C     -0.699574    3.176837    0.000000
  S     -1.617484   -1.665174    0.000000
  C     -0.729672   -3.090062    0.000000
  C     -1.414657   -4.347847    0.000000
  C      1.341386   -4.422845    0.000000
  C      0.695153   -5.562191    0.000000
  H      2.422856   -4.557310    0.000000
  C     -0.698327   -5.630037    0.000000
  H     -2.502991   -4.197652    0.000000
  H      1.465059   -6.366910    0.000000
  H     -1.042408   -6.691638    0.000000
  C      1.397706    4.369708    0.000000
  C     -1.357943    4.400961    0.000000
  C      0.706413    5.607888    0.000000
  H      2.483976    4.305759    0.000000
  C     -0.686497    5.584473    0.000000
  H     -2.441730    4.441497    0.000000
  H      1.184934    6.587925    0.000000
  H     -1.316981    6.472785    0.000000

 Total Charge           Charge          ....   -2
 Multiplicity           Mult            ....    2
 Number of Electrons    NEL             ....  175
 Basis Dimension        Dim             ....  475

ORBITAL ENERGIES
----------------
                 SPIN UP ORBITALS
  NO   OCC          E(Eh)            E(eV)    Irrep
   0   1.0000    -318.182236     -8658.1788    1-A'
   1   1.0000     -88.017094     -2395.0669    2-A'
   2   1.0000     -88.015776     -2395.0310    3-A'
   3   1.0000     -88.014077     -2394.9848    4-A'
   4   1.0000     -88.012840     -2394.9511    5-A'
   5   1.0000     -38.027427     -1034.7789    6-A'
   6   1.0000     -33.530573      -912.4133    7-A'
   7   1.0000     -33.529722      -912.3901    8-A'
   8   1.0000     -33.515932      -912.0149    1-A"
   9   1.0000      -9.837495      -267.6919    9-A'
  10   1.0000      -9.835340      -267.6332   10-A'
  11   1.0000      -9.833507      -267.5833   11-A'
  12   1.0000      -9.832386      -267.5528   12-A'
  13   1.0000      -9.832352      -267.5519   13-A'
  14   1.0000      -9.830442      -267.4999   14-A'
  15   1.0000      -9.828563      -267.4488   15-A'
  16   1.0000      -9.821680      -267.2615   16-A'
  17   1.0000      -9.820152      -267.2199   17-A'
  18   1.0000      -9.815337      -267.0889   18-A'
  19   1.0000      -9.812230      -267.0044   19-A'
  20   1.0000      -9.804968      -266.8067   20-A'
  21   1.0000      -7.587240      -206.4593   21-A'
  22   1.0000      -7.584914      -206.3960   22-A'
  23   1.0000      -7.582358      -206.3265   23-A'
  24   1.0000      -7.580457      -206.2747   24-A'
  25   1.0000      -5.510208      -149.9404   25-A'
  26   1.0000      -5.508053      -149.8818   26-A'
  27   1.0000      -5.505630      -149.8158   27-A'
  28   1.0000      -5.504996      -149.7986   28-A'
  29   1.0000      -5.503816      -149.7665   29-A'
  30   1.0000      -5.503332      -149.7533    2-A"
  31   1.0000      -5.502807      -149.7390   30-A'
  32   1.0000      -5.500975      -149.6891    3-A"
  33   1.0000      -5.500292      -149.6705   31-A'
  34   1.0000      -5.498480      -149.6213   32-A'
  35   1.0000      -5.498434      -149.6200    4-A"
  36   1.0000      -5.496541      -149.5685    5-A"
  37   1.0000      -4.025027      -109.5266   33-A'
  38   1.0000      -2.546472       -69.2930   34-A'
  39   1.0000      -2.544935       -69.2512   35-A'
  40   1.0000      -2.517487       -68.5043    6-A"
  41   1.0000      -0.592977       -16.1357   36-A'
  42   1.0000      -0.590487       -16.0680   37-A'
  43   1.0000      -0.514914       -14.0115   38-A'
  44   1.0000      -0.506545       -13.7838   39-A'
  45   1.0000      -0.488720       -13.2987   40-A'
  46   1.0000      -0.481647       -13.1063   41-A'
  47   1.0000      -0.413653       -11.2561   42-A'
  48   1.0000      -0.409187       -11.1346   43-A'
  49   1.0000      -0.387422       -10.5423   44-A'
  50   1.0000      -0.380878       -10.3642   45-A'
  51   1.0000      -0.324022        -8.8171   46-A'
  52   1.0000      -0.321303        -8.7431   47-A'
  53   1.0000      -0.298571        -8.1245   48-A'
  54   1.0000      -0.293587        -7.9889   49-A'
  55   1.0000      -0.233013        -6.3406   50-A'
  56   1.0000      -0.227683        -6.1956   51-A'
  57   1.0000      -0.193101        -5.2545   52-A'
  58   1.0000      -0.190655        -5.1880   53-A'
  59   1.0000      -0.175562        -4.7773   54-A'
  60   1.0000      -0.167439        -4.5563   55-A'
  61   1.0000      -0.145072        -3.9476   56-A'
  62   1.0000      -0.138500        -3.7688   57-A'
  63   1.0000      -0.130815        -3.5597   58-A'
  64   1.0000      -0.119230        -3.2444    7-A"
  65   1.0000      -0.117775        -3.2048    8-A"
  66   1.0000      -0.112139        -3.0514   59-A'
  67   1.0000      -0.087049        -2.3687   60-A'
  68   1.0000      -0.075287        -2.0487   61-A'
  69   1.0000      -0.065291        -1.7766   62-A'
  70   1.0000      -0.054558        -1.4846   63-A'
  71   1.0000      -0.044410        -1.2085    9-A"
  72   1.0000      -0.039391        -1.0719   10-A"
  73   1.0000      -0.034791        -0.9467   64-A'
  74   1.0000      -0.026208        -0.7132   65-A'
  75   1.0000      -0.025007        -0.6805   11-A"
  76   1.0000      -0.017233        -0.4689   12-A"
  77   1.0000      -0.003463        -0.0942   13-A"
  78   1.0000      -0.000858        -0.0234   66-A'
  79   1.0000       0.000994         0.0271   14-A"
  80   1.0000       0.017889         0.4868   67-A'
  81   1.0000       0.018136         0.4935   68-A'
  82   1.0000       0.034587         0.9412   69-A'
  83   1.0000       0.049515         1.3474   15-A"
  84   1.0000       0.051633         1.4050   16-A"
  85   1.0000       0.062121         1.6904   17-A"
  86   1.0000       0.087100         2.3701   18-A"
  87   1.0000       0.104221         2.8360   70-A'
  88   0.0000       0.180701         4.9171   71-A'
  89   0.0000       0.181095         4.9278   72-A'
  90   0.0000       0.195784         5.3275   19-A"
  91   0.0000       0.196554         5.3485   73-A'
  92   0.0000       0.196725         5.3532   74-A'

                 SPIN DOWN ORBITALS
  NO   OCC          E(Eh)            E(eV)    Irrep
   0   1.0000    -318.182061     -8658.1740    1-A'
   1   1.0000     -88.016057     -2395.0387    2-A'
   2   1.0000     -88.014693     -2395.0016    3-A'
   3   1.0000     -88.013018     -2394.9560    4-A'
   4   1.0000     -88.011752     -2394.9215    5-A'
   5   1.0000     -38.011553     -1034.3469    6-A'
   6   1.0000     -33.515407      -912.0006    7-A'
   7   1.0000     -33.514589      -911.9783    8-A'
   8   1.0000     -33.511606      -911.8972    1-A"
   9   1.0000      -9.837465      -267.6910    9-A'
  10   1.0000      -9.835455      -267.6363   10-A'
  11   1.0000      -9.833627      -267.5866   11-A'
  12   1.0000      -9.832499      -267.5559   12-A'
  13   1.0000      -9.832463      -267.5549   13-A'
  14   1.0000      -9.830348      -267.4974   14-A'
  15   1.0000      -9.828537      -267.4481   15-A'
  16   1.0000      -9.821607      -267.2595   16-A'
  17   1.0000      -9.820132      -267.2194   17-A'
  18   1.0000      -9.815318      -267.0884   18-A'
  19   1.0000      -9.812184      -267.0031   19-A'
  20   1.0000      -9.804935      -266.8058   20-A'
  21   1.0000      -7.586527      -206.4399   21-A'
  22   1.0000      -7.584171      -206.3758   22-A'
  23   1.0000      -7.581632      -206.3067   23-A'
  24   1.0000      -7.579712      -206.2545   24-A'
  25   1.0000      -5.509302      -149.9157   25-A'
  26   1.0000      -5.507112      -149.8561   26-A'
  27   1.0000      -5.504709      -149.7908   27-A'
  28   1.0000      -5.502870      -149.7407   28-A'
  29   1.0000      -5.502819      -149.7393   29-A'
  30   1.0000      -5.502541      -149.7318    2-A"
  31   1.0000      -5.500532      -149.6771   30-A'
  32   1.0000      -5.500151      -149.6667    3-A"
  33   1.0000      -5.498066      -149.6100   31-A'
  34   1.0000      -5.497627      -149.5980    4-A"
  35   1.0000      -5.496199      -149.5592   32-A'
  36   1.0000      -5.495712      -149.5459    5-A"
  37   1.0000      -3.991276      -108.6081   33-A'
  38   1.0000      -2.505778       -68.1857    6-A"
  39   1.0000      -2.504413       -68.1485   34-A'
  40   1.0000      -2.502807       -68.1048   35-A'
  41   1.0000      -0.592639       -16.1265   36-A'
  42   1.0000      -0.590131       -16.0583   37-A'
  43   1.0000      -0.513496       -13.9729   38-A'
  44   1.0000      -0.505227       -13.7479   39-A'
  45   1.0000      -0.487716       -13.2714   40-A'
  46   1.0000      -0.480683       -13.0801   41-A'
  47   1.0000      -0.409964       -11.1557   42-A'
  48   1.0000      -0.405208       -11.0263   43-A'
  49   1.0000      -0.384212       -10.4549   44-A'
  50   1.0000      -0.377760       -10.2794   45-A'
  51   1.0000      -0.322247        -8.7688   46-A'
  52   1.0000      -0.319605        -8.6969   47-A'
  53   1.0000      -0.296745        -8.0748   48-A'
  54   1.0000      -0.291766        -7.9393   49-A'
  55   1.0000      -0.232432        -6.3248   50-A'
  56   1.0000      -0.226979        -6.1764   51-A'
  57   1.0000      -0.192163        -5.2290   52-A'
  58   1.0000      -0.189742        -5.1631   53-A'
  59   1.0000      -0.174908        -4.7595   54-A'
  60   1.0000      -0.166550        -4.5321   55-A'
  61   1.0000      -0.144153        -3.9226   56-A'
  62   1.0000      -0.137156        -3.7322   57-A'
  63   1.0000      -0.129494        -3.5237   58-A'
  64   1.0000      -0.119063        -3.2399    7-A"
  65   1.0000      -0.117595        -3.1999    8-A"
  66   1.0000      -0.111166        -3.0250   59-A'
  67   1.0000      -0.085609        -2.3295   60-A'
  68   1.0000      -0.073874        -2.0102   61-A'
  69   1.0000      -0.055991        -1.5236   62-A'
  70   1.0000      -0.047477        -1.2919   63-A'
  71   1.0000      -0.042885        -1.1670    9-A"
  72   1.0000      -0.038039        -1.0351   10-A"
  73   1.0000      -0.022174        -0.6034   64-A'
  74   1.0000      -0.021797        -0.5931   11-A"
  75   1.0000      -0.016128        -0.4389   12-A"
  76   1.0000      -0.003299        -0.0898   65-A'
  77   1.0000       0.006184         0.1683   13-A"
  78   1.0000       0.010037         0.2731   66-A'
  79   1.0000       0.012974         0.3530   14-A"
  80   1.0000       0.024910         0.6778   67-A'
  81   1.0000       0.033469         0.9107   68-A'
  82   1.0000       0.042861         1.1663   69-A'
  83   1.0000       0.052331         1.4240   15-A"
  84   1.0000       0.057191         1.5562   16-A"
  85   1.0000       0.063977         1.7409   17-A"
  86   1.0000       0.091251         2.4831   18-A"
  87   0.0000       0.137230         3.7342   70-A'
  88   0.0000       0.181849         4.9484   71-A'
  89   0.0000       0.182232         4.9588   72-A'
  90   0.0000       0.195902         5.3308   19-A"
  91   0.0000       0.198422         5.3993   73-A'

MULLIKEN ATOMIC CHARGES AND SPIN POPULATIONS
--------------------------------------------
   0 Cu:    0.139882    0.375689
   1 S :   -0.411257    0.163596
   2 C :    0.040206   -0.007690
   3 S :   -0.444770    0.169395
   4 C :   -0.024961   -0.008310
   5 S :   -0.436111    0.163015
   6 C :    0.006864   -0.007491
   7 S :   -0.395633    0.154651
   8 C :    0.069502   -0.007159
   9 C :   -0.147785   -0.000444
  10 C :   -0.003537   -0.001412
  11 C :   -0.021670   -0.001153
  12 H :    0.038881    0.001337
  13 C :   -0.247164   -0.000582
  14 H :    0.079368    0.002256
  15 H :    0.013598    0.001660
  16 H :    0.012591    0.001086
  17 C :   -0.116028   -0.001382
  18 C :   -0.061966   -0.001645
  19 C :   -0.181732   -0.000708
  20 H :    0.071775    0.002274
  21 C :   -0.094473   -0.001037
  22 H :    0.056445    0.001788
  23 H :    0.027749    0.001058
  24 H :    0.030224    0.001204
Sum of atomic charges         :   -2.0000000

LOEWDIN ATOMIC CHARGES AND SPIN POPULATIONS
-------------------------------------------
   0 Cu:   -0.892541    0.442298
   1 S :    0.019484    0.124747
   2 C :   -0.050268    0.005625
   3 S :   -0.012472    0.129332
   4 C :   -0.003429    0.004134
   5 S :    0.000553    0.123818
   6 C :   -0.025562    0.004604
   7 S :    0.035930    0.117325
   8 C :   -0.070206    0.006018
   9 C :    0.329328    0.004761
  10 C :    0.266987    0.003309
  11 C :    0.271221   -0.000160
  12 H :   -0.418436    0.005201
  13 C :    0.322933    0.000061
  14 H :   -0.473075    0.007598
  15 H :   -0.390758    0.000316
  16 H :   -0.414629    0.000299
  17 C :    0.317126    0.004294
  18 C :    0.293793    0.003541
  19 C :    0.320051   -0.000030
  20 H :   -0.457303    0.006867
  21 C :    0.299940   -0.000200
  22 H :   -0.436638    0.005810
  23 H :   -0.420556    0.000239
  24 H :   -0.411473    0.000195

  Mayer bond orders larger than 0.100000
B(  0-Cu,  1-S ) :   0.6976 B(  0-Cu,  3-S ) :   0.7167 B(  0-Cu,  5-S ) :   0.7064
B(  0-Cu,  7-S ) :   0.6832 B(  1-S ,  2-C ) :   1.2054 B(  2-C ,  6-C ) :   1.2437
B(  2-C , 17-C ) :   1.3163 B(  3-S ,  4-C ) :   1.1391 B(  4-C ,  8-C ) :   1.2389
B(  4-C , 10-C ) :   1.3202 B(  5-S ,  6-C ) :   1.1648 B(  6-C , 18-C ) :   1.3196
B(  7-S ,  8-C ) :   1.2421 B(  8-C ,  9-C ) :   1.3124 B(  9-C , 13-C ) :   1.3667
B(  9-C , 14-H ) :   0.9603 B( 10-C , 11-C ) :   1.3373 B( 10-C , 12-H ) :   0.9775
B( 11-C , 13-C ) :   1.3339 B( 11-C , 15-H ) :   0.9849 B( 13-C , 16-H ) :   1.0027
B( 17-C , 19-C ) :   1.3669 B( 17-C , 20-H ) :   0.9661 B( 18-C , 21-C ) :   1.3553
B( 18-C , 22-H ) :   0.9730 B( 19-C , 21-C ) :   1.3389 B( 19-C , 23-H ) :   0.9934
B( 21-C , 24-H ) :   0.9847

FINAL SINGLE POINT ENERGY     -3686.889002094276

DIPOLE MOMENT
-------------
                                X             Y             Z
Electronic contribution:     -0.25260       0.10227      -0.00000
Nuclear contribution   :      0.23738      -0.00513       0.00000
                        -----------------------------------------
Total Dipole Moment    :     -0.01522       0.09714      -0.00000
                        -----------------------------------------
Magnitude (a.u.)       :      0.09833
Magnitude (Debye)      :      0.24993

Rotational constants in cm-1:     0.033412     0.004803     0.004200
Rotational constants in MHz :  1001.660449   144.004874   125.904122

                             ****ORCA TERMINATED NORMALLY****
TOTAL RUN TIME: 0 days 7 hours 0 minutes 35 seconds 805 msec
