                         Program Version 5.0.4 -  RELEASE  -
|  1> ! RIJCOSX nofrozencore ReducedPop printbasis
|  2> ! M06L ano-rcc-dzp autoaux
|  3>
|  4> %maxcore 5000
|  5> %basis
|  6> PCDTrimBas overlap
|  7> PCDTrimAuxJ Coulomb
|  8> PCDTrimAuxJK Coulomb
|  9> PCDTrimAuxC Coulomb
| 10> PCDThresh -1
| 11> end
| 12>
| 13> %basis
| 14> newgto Cu "ano-rcc-tzp" end
| 15> newgto S "ano-rcc-tzp" end
| 16> end
| 17>
| 18> %pal
| 19> nprocs 4
| 20> end
| 21>
| 22> % sym SymThresh 1e-2 end
| 23> * xyz -2 2
| 24> Cu 0.0003950491800619234 0.0013382534709177358 -9.456634131145431e-05
| 25> S -0.2064569031998247 -1.5328413522733702 -1.7671711949063915
| 26> C 0.2836270386597592 -0.4326388773975795 -3.105029497739153
| 27> S -0.6531888342592619 -1.584572370067735 1.5254586508922316
| 28> C -0.6729254715232468 -0.9324755254234312 3.097212768585089
| 29> S 0.650819960308291 1.5740312985583733 -1.53037623827213
| 30> C 0.6768466870397829 0.9422359904727924 -3.105829891590656
| 31> S 0.20225551898581173 1.5208106868874318 1.7729759018807212
| 32> C -0.2826788351163308 0.4409650438969005 3.1159490938152823
| 33> C -0.28384697872162457 1.0125119893001764 4.3705920741769075
| 34> C -1.0317404114817352 -1.6458076800294883 4.277642621411875
| 35> C -1.0121426551132986 -1.0093753294932966 5.515413334231216
| 36> H -1.317006944551867 -2.6885230207867425 4.179509545654356
| 37> C -0.6299507607996659 0.3350963699002925 5.532409685329943
| 38> H 0.004405695002271551 2.0558404591213404 4.447306530400317
| 39> H -1.2809666070076782 -1.527342766452134 6.435668117103428
| 40> H -0.5958890569126819 0.8851721545766474 6.471701552511816
| 41> C 0.28546241015708396 -1.0005813392190823 -4.35690237520579
| 42> C 1.0366835489011472 1.6567222877545191 -4.291534170197431
| 43> C 0.6303625899445112 -0.32991176055154064 -5.524248682042584
| 44> H -0.0026423152688521997 -2.043923420440891 -4.434774290297109
| 45> C 1.0154131656144816 1.0154467716278595 -5.527110773116216
| 46> H 1.3219059856733635 2.699506706855813 -4.192898408952859
| 47> H 0.59181291755661 -0.8927889683702722 -6.457231182040293
| 48> H 1.282408113333461 1.5237845999004376 -6.4544118881034995
| 49> *
| 50>
| 51> % eprnmr
| 52> gtensor true
| 53> Nuclei = all H {aiso,adip,aorb,fgrad,rho}
| 54> Nuclei = all Cu {aiso,adip,aorb,fgrad,rho}
| 55> end
| 56>
| 57>                          ****END OF INPUT****

CARTESIAN COORDINATES (ANGSTROEM)
---------------------------------
  Cu     0.001393   -0.000120    0.000000
  S     -1.562143   -1.753520    0.000000
  C     -0.393904   -3.123086    0.000000
  S     -1.675322    1.567752    0.000000
  C     -1.025548    3.140592    0.000000
  S      1.664449   -1.572515    0.000000
  C      1.035853   -3.149463    0.000000
  S      1.549527    1.759597    0.000000
  C      0.402366    3.133943    0.000000
  C      0.974094    4.388504    0.000000
  C     -1.788638    4.344211    0.000000
  C     -1.149130    5.580552    0.000000
  H     -2.871196    4.264645    0.000000
  C      0.248690    5.572687    0.000000
  H      2.057676    4.446460    0.000000
  H     -1.704366    6.518176    0.000000
  H      0.803778    6.509645    0.000000
  C     -0.961934   -4.374921    0.000000
  C      1.800238   -4.358423    0.000000
  C     -0.243446   -5.564554    0.000000
  H     -2.045510   -4.434044    0.000000
  C      1.155655   -5.592460    0.000000
  H      2.882859   -4.278351    0.000000
  H     -0.811960   -6.494911    0.000000
  H      1.701003   -6.537011    0.000000

 Total Charge           Charge          ....   -2
 Multiplicity           Mult            ....    2
 Number of Electrons    NEL             ....  175
 Basis Dimension        Dim             ....  475

ORBITAL ENERGIES
----------------
                 SPIN UP ORBITALS
  NO   OCC          E(Eh)            E(eV)    Irrep
   0   1.0000    -318.182355     -8658.1821    1-A'
   1   1.0000     -88.021266     -2395.1804    2-A'
   2   1.0000     -88.020218     -2395.1519    3-A'
   3   1.0000     -88.009735     -2394.8666    4-A'
   4   1.0000     -88.009282     -2394.8543    5-A'
   5   1.0000     -38.027388     -1034.7778    6-A'
   6   1.0000     -33.530559      -912.4129    7-A'
   7   1.0000     -33.529617      -912.3873    8-A'
   8   1.0000     -33.515954      -912.0155    1-A"
   9   1.0000      -9.835807      -267.6459    9-A'
  10   1.0000      -9.834860      -267.6201   10-A'
  11   1.0000      -9.831818      -267.5374   11-A'
  12   1.0000      -9.831587      -267.5311   12-A'
  13   1.0000      -9.829563      -267.4760   13-A'
  14   1.0000      -9.828476      -267.4464   14-A'
  15   1.0000      -9.823414      -267.3087   15-A'
  16   1.0000      -9.822321      -267.2790   16-A'
  17   1.0000      -9.820226      -267.2219   17-A'
  18   1.0000      -9.820010      -267.2161   18-A'
  19   1.0000      -9.810389      -266.9543   19-A'
  20   1.0000      -9.809520      -266.9306   20-A'
  21   1.0000      -7.588248      -206.4867   21-A'
  22   1.0000      -7.587454      -206.4651   22-A'
  23   1.0000      -7.579922      -206.2602   23-A'
  24   1.0000      -7.579653      -206.2528   24-A'
  25   1.0000      -5.511985      -149.9887   25-A'
  26   1.0000      -5.511089      -149.9644   26-A'
  27   1.0000      -5.506366      -149.8358   27-A'
  28   1.0000      -5.505548      -149.8136   28-A'
  29   1.0000      -5.504060      -149.7731    2-A"
  30   1.0000      -5.503309      -149.7527    3-A"
  31   1.0000      -5.502825      -149.7395   29-A'
  32   1.0000      -5.502520      -149.7312   30-A'
  33   1.0000      -5.497587      -149.5969   31-A'
  34   1.0000      -5.497267      -149.5882   32-A'
  35   1.0000      -5.496152      -149.5579    4-A"
  36   1.0000      -5.495911      -149.5513    5-A"
  37   1.0000      -4.025013      -109.5262   33-A'
  38   1.0000      -2.546650       -69.2979   34-A'
  39   1.0000      -2.544667       -69.2439   35-A'
  40   1.0000      -2.517546       -68.5059    6-A"
  41   1.0000      -0.589577       -16.0432   36-A'
  42   1.0000      -0.589386       -16.0380   37-A'
  43   1.0000      -0.505940       -13.7673   38-A'
  44   1.0000      -0.504830       -13.7371   39-A'
  45   1.0000      -0.490018       -13.3341   40-A'
  46   1.0000      -0.489556       -13.3215   41-A'
  47   1.0000      -0.409586       -11.1454   42-A'
  48   1.0000      -0.407102       -11.0778   43-A'
  49   1.0000      -0.387149       -10.5349   44-A'
  50   1.0000      -0.380616       -10.3571   45-A'
  51   1.0000      -0.322616        -8.7788   46-A'
  52   1.0000      -0.320066        -8.7094   47-A'
  53   1.0000      -0.298017        -8.1095   48-A'
  54   1.0000      -0.294604        -8.0166   49-A'
  55   1.0000      -0.231908        -6.3105   50-A'
  56   1.0000      -0.226654        -6.1676   51-A'
  57   1.0000      -0.189991        -5.1699   52-A'
  58   1.0000      -0.189136        -5.1467   53-A'
  59   1.0000      -0.177801        -4.8382   54-A'
  60   1.0000      -0.174804        -4.7567   55-A'
  61   1.0000      -0.146519        -3.9870   56-A'
  62   1.0000      -0.145126        -3.9491   57-A'
  63   1.0000      -0.129325        -3.5191   58-A'
  64   1.0000      -0.117074        -3.1857    7-A"
  65   1.0000      -0.116908        -3.1812    8-A"
  66   1.0000      -0.113059        -3.0765   59-A'
  67   1.0000      -0.084976        -2.3123   60-A'
  68   1.0000      -0.070315        -1.9134   61-A'
  69   1.0000      -0.067676        -1.8416   62-A'
  70   1.0000      -0.060996        -1.6598   63-A'
  71   1.0000      -0.041440        -1.1276   64-A'
  72   1.0000      -0.039395        -1.0720    9-A"
  73   1.0000      -0.037674        -1.0252   10-A"
  74   1.0000      -0.026424        -0.7190   11-A"
  75   1.0000      -0.019368        -0.5270   12-A"
  76   1.0000      -0.018191        -0.4950   65-A'
  77   1.0000      -0.003313        -0.0902   13-A"
  78   1.0000       0.000612         0.0167   14-A"
  79   1.0000       0.000614         0.0167   66-A'
  80   1.0000       0.018183         0.4948   67-A'
  81   1.0000       0.020138         0.5480   68-A'
  82   1.0000       0.039665         1.0793   69-A'
  83   1.0000       0.048916         1.3311   15-A"
  84   1.0000       0.051858         1.4111   16-A"
  85   1.0000       0.063887         1.7385   17-A"
  86   1.0000       0.087808         2.3894   18-A"
  87   1.0000       0.103580         2.8186   70-A'
  88   0.0000       0.180980         4.9247   71-A'
  89   0.0000       0.181151         4.9294   72-A'
  90   0.0000       0.197356         5.3703   73-A'
  91   0.0000       0.197599         5.3769   74-A'
  92   0.0000       0.200655         5.4601   19-A"

                 SPIN DOWN ORBITALS
  NO   OCC          E(Eh)            E(eV)    Irrep
   0   1.0000    -318.182182     -8658.1774    1-A'
   1   1.0000     -88.020142     -2395.1498    2-A'
   2   1.0000     -88.019116     -2395.1219    3-A'
   3   1.0000     -88.008702     -2394.8385    4-A'
   4   1.0000     -88.008265     -2394.8266    5-A'
   5   1.0000     -38.011600     -1034.3482    6-A'
   6   1.0000     -33.515477      -912.0025    7-A'
   7   1.0000     -33.514567      -911.9777    8-A'
   8   1.0000     -33.511652      -911.8984    1-A"
   9   1.0000      -9.835928      -267.6492    9-A'
  10   1.0000      -9.834979      -267.6234   10-A'
  11   1.0000      -9.831915      -267.5400   11-A'
  12   1.0000      -9.831686      -267.5338   12-A'
  13   1.0000      -9.829539      -267.4754   13-A'
  14   1.0000      -9.828451      -267.4457   14-A'
  15   1.0000      -9.823336      -267.3066   15-A'
  16   1.0000      -9.822246      -267.2769   16-A'
  17   1.0000      -9.820211      -267.2215   17-A'
  18   1.0000      -9.819996      -267.2157   18-A'
  19   1.0000      -9.810349      -266.9532   19-A'
  20   1.0000      -9.809483      -266.9296   20-A'
  21   1.0000      -7.587468      -206.4655   21-A'
  22   1.0000      -7.586692      -206.4444   22-A'
  23   1.0000      -7.579216      -206.2409   23-A'
  24   1.0000      -7.578959      -206.2340   24-A'
  25   1.0000      -5.511067      -149.9638   25-A'
  26   1.0000      -5.510182      -149.9397   26-A'
  27   1.0000      -5.503897      -149.7686   27-A'
  28   1.0000      -5.503211      -149.7500    2-A"
  29   1.0000      -5.503141      -149.7481   28-A'
  30   1.0000      -5.502478      -149.7300    3-A"
  31   1.0000      -5.501903      -149.7144   29-A'
  32   1.0000      -5.501614      -149.7065   30-A'
  33   1.0000      -5.495472      -149.5394   31-A'
  34   1.0000      -5.495354      -149.5362    4-A"
  35   1.0000      -5.495189      -149.5317   32-A'
  36   1.0000      -5.495123      -149.5299    5-A"
  37   1.0000      -3.991423      -108.6121   33-A'
  38   1.0000      -2.505897       -68.1889    6-A"
  39   1.0000      -2.504635       -68.1546   34-A'
  40   1.0000      -2.502893       -68.1072   35-A'
  41   1.0000      -0.589193       -16.0328   36-A'
  42   1.0000      -0.589007       -16.0277   37-A'
  43   1.0000      -0.504629       -13.7317   38-A'
  44   1.0000      -0.503583       -13.7032   39-A'
  45   1.0000      -0.488943       -13.3048   40-A'
  46   1.0000      -0.488482       -13.2923   41-A'
  47   1.0000      -0.405781       -11.0419   42-A'
  48   1.0000      -0.403239       -10.9727   43-A'
  49   1.0000      -0.383841       -10.4449   44-A'
  50   1.0000      -0.377398       -10.2695   45-A'
  51   1.0000      -0.321355        -8.7445   46-A'
  52   1.0000      -0.318491        -8.6666   47-A'
  53   1.0000      -0.296272        -8.0620   48-A'
  54   1.0000      -0.292440        -7.9577   49-A'
  55   1.0000      -0.231302        -6.2941   50-A'
  56   1.0000      -0.225954        -6.1485   51-A'
  57   1.0000      -0.188999        -5.1429   52-A'
  58   1.0000      -0.188222        -5.1218   53-A'
  59   1.0000      -0.177261        -4.8235   54-A'
  60   1.0000      -0.173893        -4.7319   55-A'
  61   1.0000      -0.145798        -3.9674   56-A'
  62   1.0000      -0.143764        -3.9120   57-A'
  63   1.0000      -0.127845        -3.4788   58-A'
  64   1.0000      -0.116890        -3.1807    7-A"
  65   1.0000      -0.116708        -3.1758    8-A"
  66   1.0000      -0.112243        -3.0543   59-A'
  67   1.0000      -0.083339        -2.2678   60-A'
  68   1.0000      -0.068677        -1.8688   61-A'
  69   1.0000      -0.059357        -1.6152   62-A'
  70   1.0000      -0.057198        -1.5564   63-A'
  71   1.0000      -0.037357        -1.0165    9-A"
  72   1.0000      -0.036783        -1.0009   10-A"
  73   1.0000      -0.023290        -0.6337   11-A"
  74   1.0000      -0.018670        -0.5080   64-A'
  75   1.0000      -0.018576        -0.5055   12-A"
  76   1.0000      -0.001479        -0.0402   65-A'
  77   1.0000       0.006351         0.1728   13-A"
  78   1.0000       0.012640         0.3439   66-A'
  79   1.0000       0.012786         0.3479   14-A"
  80   1.0000       0.025355         0.6899   67-A'
  81   1.0000       0.034412         0.9364   68-A'
  82   1.0000       0.047502         1.2926   69-A'
  83   1.0000       0.051835         1.4105   15-A"
  84   1.0000       0.057445         1.5631   16-A"
  85   1.0000       0.065672         1.7870   17-A"
  86   1.0000       0.091866         2.4998   18-A"
  87   0.0000       0.136300         3.7089   70-A'
  88   0.0000       0.182557         4.9676   71-A'
  89   0.0000       0.182615         4.9692   72-A'
  90   0.0000       0.198856         5.4112   73-A'
  91   0.0000       0.199069         5.4169   74-A'

MULLIKEN ATOMIC CHARGES AND SPIN POPULATIONS
--------------------------------------------
   0 Cu:    0.151574    0.373197
   1 S :   -0.448677    0.173125
   2 C :    0.018678   -0.008333
   3 S :   -0.390582    0.156983
   4 C :    0.012190   -0.007289
   5 S :   -0.385618    0.155096
   6 C :    0.009681   -0.007471
   7 S :   -0.446408    0.170204
   8 C :    0.021081   -0.008162
   9 C :   -0.036146   -0.002235
  10 C :   -0.146046   -0.000607
  11 C :   -0.133442   -0.001000
  12 H :    0.057195    0.001564
  13 C :   -0.140965   -0.000968
  14 H :    0.070701    0.002269
  15 H :    0.022671    0.001847
  16 H :    0.035234    0.000441
  17 C :   -0.028311   -0.002314
  18 C :   -0.152827   -0.000374
  19 C :   -0.140891   -0.000964
  20 H :    0.071587    0.002289
  21 C :   -0.133458   -0.001083
  22 H :    0.056813    0.001465
  23 H :    0.035394    0.000373
  24 H :    0.020574    0.001946
Sum of atomic charges         :   -2.0000000

LOEWDIN ATOMIC CHARGES AND SPIN POPULATIONS
-------------------------------------------
   0 Cu:   -0.889406    0.440293
   1 S :    0.025242    0.134501
   2 C :   -0.016398    0.002102
   3 S :   -0.010106    0.117867
   4 C :   -0.046349    0.007221
   5 S :   -0.011735    0.115863
   6 C :   -0.044943    0.007335
   7 S :    0.025254    0.131281
   8 C :   -0.020279    0.002506
   9 C :    0.294518    0.003510
  10 C :    0.312529    0.004059
  11 C :    0.312552    0.000173
  12 H :   -0.438940    0.004506
  13 C :    0.310122   -0.000452
  14 H :   -0.461390    0.008244
  15 H :   -0.410511    0.000600
  16 H :   -0.422724   -0.000153
  17 C :    0.291997    0.003469
  18 C :    0.312978    0.004042
  19 C :    0.309818   -0.000476
  20 H :   -0.464136    0.008636
  21 C :    0.312427    0.000186
  22 H :   -0.438827    0.004231
  23 H :   -0.423160   -0.000190
  24 H :   -0.408533    0.000647

  Mayer bond orders larger than 0.100000
B(  0-Cu,  1-S ) :   0.6797 B(  0-Cu,  3-S ) :   0.7107 B(  0-Cu,  5-S ) :   0.7163
B(  0-Cu,  7-S ) :   0.6868 B(  1-S ,  2-C ) :   1.1634 B(  2-C ,  6-C ) :   1.2420
B(  2-C , 17-C ) :   1.3289 B(  3-S ,  4-C ) :   1.2021 B(  4-C ,  8-C ) :   1.2424
B(  4-C , 10-C ) :   1.3169 B(  5-S ,  6-C ) :   1.2037 B(  6-C , 18-C ) :   1.3171
B(  7-S ,  8-C ) :   1.1672 B(  8-C ,  9-C ) :   1.3266 B(  9-C , 13-C ) :   1.3482
B(  9-C , 14-H ) :   0.9630 B( 10-C , 11-C ) :   1.3692 B( 10-C , 12-H ) :   0.9766
B( 11-C , 13-C ) :   1.3401 B( 11-C , 15-H ) :   0.9926 B( 13-C , 16-H ) :   0.9867
B( 17-C , 19-C ) :   1.3448 B( 17-C , 20-H ) :   0.9621 B( 18-C , 21-C ) :   1.3696
B( 18-C , 22-H ) :   0.9771 B( 19-C , 21-C ) :   1.3405 B( 19-C , 23-H ) :   0.9866
B( 21-C , 24-H ) :   0.9939

FINAL SINGLE POINT ENERGY     -3686.898169566443

DIPOLE MOMENT
-------------
                                X             Y             Z
Electronic contribution:     -0.00473       0.01097      -0.00000
Nuclear contribution   :      0.00498      -0.00447       0.00000
                        -----------------------------------------
Total Dipole Moment    :      0.00025       0.00650      -0.00000
                        -----------------------------------------
Magnitude (a.u.)       :      0.00650
Magnitude (Debye)      :      0.01652

Rotational constants in cm-1:     0.033376     0.004802     0.004198
Rotational constants in MHz :  1000.588480   143.950663   125.845739

                             ****ORCA TERMINATED NORMALLY****
TOTAL RUN TIME: 0 days 5 hours 28 minutes 26 seconds 122 msec
