                         Program Version 5.0.4 -  RELEASE  -
|  1> ! RIJCOSX nofrozencore ReducedPop printbasis
|  2> ! M06L ano-rcc-dzp autoaux
|  3>
|  4> %maxcore 5000
|  5> %basis
|  6> PCDTrimBas overlap
|  7> PCDTrimAuxJ Coulomb
|  8> PCDTrimAuxJK Coulomb
|  9> PCDTrimAuxC Coulomb
| 10> PCDThresh -1
| 11> end
| 12>
| 13> %basis
| 14> newgto Cu "ano-rcc-tzp" end
| 15> newgto S "ano-rcc-tzp" end
| 16> end
| 17>
| 18> %pal
| 19> nprocs 12
| 20> end
| 21>
| 22> % sym SymThresh 1e-2 end
| 23> * xyz -2 2
| 24> Cu -2.9095380765394176e-06 7.092794132572198e-07 -1.7751308429746436e-07
| 25> S -0.28692629575910106 -1.6058517261237515 -1.6465410905815039
| 26> C -0.07677660280845514 -0.7383842359032811 -3.14574720253054
| 27> S -0.48402487996642884 -1.5319319217418301 1.6706714596583214
| 28> C -0.1797038181473402 -0.6642306234529836 3.161451431876271
| 29> S 0.4720453418592906 1.5348522615126812 -1.6714023401974023
| 30> C 0.4278777176158974 0.6037314537668536 -3.1463101574959786
| 31> S 0.2988951655599587 1.6029339870440824 1.6472713202392755
| 32> C -0.17125957852447918 0.7988498330305169 3.1306143304362375
| 33> C 0.15008778401128645 1.4159152834613973 4.371359114975686
| 34> C -0.6386031750203258 -1.2285568976415537 4.383942406770568
| 35> C -0.3579934856500066 -0.5859648590306781 5.598735835065029
| 36> H -1.1556349799028427 -2.219541263533086 4.365864378822698
| 37> C -0.2655124689938241 0.8250785397848787 5.5737010307662045
| 38> H 0.6682916846907647 2.406451739719275 4.368638955300523
| 39> H -0.6795475912936118 -1.070853417361732 6.526850190925003
| 40> H -0.046631493027284275 1.349535431817841 6.5103696910688
| 41> C -0.04808428397278007 -1.4407814161970933 -4.365134803876042
| 42> C 0.5365521525265693 1.2534346152743328 -4.3901696172505895
| 43> C 0.08544988605102914 -0.7811833647366291 -5.584686783014122
| 44> H -0.1739728036390239 -2.5269554749140233 -4.338480192330721
| 45> C 0.537865978771801 0.5421160235707613 -5.58776168033862
| 46> H 0.6614781188322006 2.340005494146417 -4.396014258450124
| 47> H 0.07338930760178405 -1.356059409569654 -6.508737154854644
| 48> H 0.6543565733575256 1.0769933871071555 -6.528387091659949
| 49> *
| 50>
| 51> % eprnmr
| 52> gtensor true
| 53> Nuclei = all H {aiso,adip,aorb,fgrad,rho}
| 54> Nuclei = all Cu {aiso,adip,aorb,fgrad,rho}
| 55> end
| 56>
| 57>                          ****END OF INPUT****

CARTESIAN COORDINATES (ANGSTROEM)
---------------------------------
  Cu     0.000000   -0.000000    0.000000
  S     -0.379140   -1.570485   -1.661931
  C     -0.252320   -0.671061   -3.151642
  S     -0.391135   -1.567558    1.661931
  C     -0.003793   -0.731705    3.151642
  S      0.379140    1.570485   -1.661931
  C      0.252320    0.671061   -3.151642
  S      0.391135    1.567558    1.661931
  C      0.003793    0.731705    3.151642
  C      0.394171    1.322303    4.385461
  C     -0.394171   -1.322303    4.385461
  C     -0.045892   -0.705655    5.596188
  H     -0.912003   -2.312981    4.375043
  C      0.045892    0.705655    5.596188
  H      0.912003    2.312981    4.375043
  H     -0.316229   -1.210282    6.530201
  H      0.316229    1.210282    6.530201
  C     -0.291970   -1.347242   -4.385460
  C      0.291970    1.347242   -4.385460
  C     -0.226165   -0.661666   -5.596188
  H     -0.416925   -2.433788   -4.375043
  C      0.226165    0.661666   -5.596188
  H      0.416925    2.433788   -4.375043
  H     -0.290210   -1.216631   -6.530201
  H      0.290210    1.216631   -6.530201

 Total Charge           Charge          ....   -2
 Multiplicity           Mult            ....    2
 Number of Electrons    NEL             ....  175
 Basis Dimension        Dim             ....  475

ORBITAL ENERGIES
----------------
                 SPIN UP ORBITALS
  NO   OCC          E(Eh)            E(eV)    Irrep
   0   1.0000    -318.183148     -8658.2036    1-A
   1   1.0000     -88.016916     -2395.0621    1-B
   2   1.0000     -88.016912     -2395.0619    2-A
   3   1.0000     -88.016033     -2395.0380    2-B
   4   1.0000     -88.016025     -2395.0378    3-A
   5   1.0000     -38.028371     -1034.8046    4-A
   6   1.0000     -33.531500      -912.4385    3-B
   7   1.0000     -33.530607      -912.4142    5-A
   8   1.0000     -33.516983      -912.0435    4-B
   9   1.0000      -9.839784      -267.7541    6-A
  10   1.0000      -9.839553      -267.7479    5-B
  11   1.0000      -9.835264      -267.6311    7-A
  12   1.0000      -9.834963      -267.6230    6-B
  13   1.0000      -9.826461      -267.3916    8-A
  14   1.0000      -9.826112      -267.3821    7-B
  15   1.0000      -9.825131      -267.3554    9-A
  16   1.0000      -9.824763      -267.3454   10-A
  17   1.0000      -9.824758      -267.3452    8-B
  18   1.0000      -9.824721      -267.3443    9-B
  19   1.0000      -9.819271      -267.1959   10-B
  20   1.0000      -9.819268      -267.1959   11-A
  21   1.0000      -7.585396      -206.4091   11-B
  22   1.0000      -7.585392      -206.4090   12-A
  23   1.0000      -7.584667      -206.3893   12-B
  24   1.0000      -7.584660      -206.3891   13-A
  25   1.0000      -5.508535      -149.8949   13-B
  26   1.0000      -5.508535      -149.8948   14-A
  27   1.0000      -5.507853      -149.8763   14-B
  28   1.0000      -5.507853      -149.8763   15-A
  29   1.0000      -5.503350      -149.7538   15-B
  30   1.0000      -5.503350      -149.7538   16-A
  31   1.0000      -5.502598      -149.7333   16-B
  32   1.0000      -5.502598      -149.7333   17-A
  33   1.0000      -5.501551      -149.7048   18-A
  34   1.0000      -5.501551      -149.7048   17-B
  35   1.0000      -5.500751      -149.6830   19-A
  36   1.0000      -5.500751      -149.6830   18-B
  37   1.0000      -4.025923      -109.5509   20-A
  38   1.0000      -2.547321       -69.3161   19-B
  39   1.0000      -2.545707       -69.2722   21-A
  40   1.0000      -2.518555       -68.5334   20-B
  41   1.0000      -0.589207       -16.0331   22-A
  42   1.0000      -0.585521       -15.9328   23-A
  43   1.0000      -0.503958       -13.7134   24-A
  44   1.0000      -0.500041       -13.6068   25-A
  45   1.0000      -0.489730       -13.3262   21-B
  46   1.0000      -0.486328       -13.2336   22-B
  47   1.0000      -0.409693       -11.1483   23-B
  48   1.0000      -0.406479       -11.0609   24-B
  49   1.0000      -0.386616       -10.5204   26-A
  50   1.0000      -0.378895       -10.3103   27-A
  51   1.0000      -0.318922        -8.6783   28-A
  52   1.0000      -0.310092        -8.4380   29-A
  53   1.0000      -0.298830        -8.1316   25-B
  54   1.0000      -0.293731        -7.9928   26-B
  55   1.0000      -0.230731        -6.2785   30-A
  56   1.0000      -0.223173        -6.0729   31-A
  57   1.0000      -0.186805        -5.0832   32-A
  58   1.0000      -0.181803        -4.9471   27-B
  59   1.0000      -0.177937        -4.8419   28-B
  60   1.0000      -0.176122        -4.7925   33-A
  61   1.0000      -0.146818        -3.9951   29-B
  62   1.0000      -0.142404        -3.8750   30-B
  63   1.0000      -0.129228        -3.5165   34-A
  64   1.0000      -0.114270        -3.1095   31-B
  65   1.0000      -0.113669        -3.0931   35-A
  66   1.0000      -0.105711        -2.8766   32-B
  67   1.0000      -0.094269        -2.5652   36-A
  68   1.0000      -0.071517        -1.9461   37-A
  69   1.0000      -0.070957        -1.9308   33-B
  70   1.0000      -0.066851        -1.8191   34-B
  71   1.0000      -0.042799        -1.1646   35-B
  72   1.0000      -0.037379        -1.0171   36-B
  73   1.0000      -0.032721        -0.8904   38-A
  74   1.0000      -0.024158        -0.6574   37-B
  75   1.0000      -0.020593        -0.5604   39-A
  76   1.0000      -0.012463        -0.3391   40-A
  77   1.0000      -0.001234        -0.0336   41-A
  78   1.0000      -0.000111        -0.0030   38-B
  79   1.0000       0.005456         0.1485   42-A
  80   1.0000       0.017884         0.4867   43-A
  81   1.0000       0.021566         0.5868   44-A
  82   1.0000       0.033183         0.9029   39-B
  83   1.0000       0.049389         1.3439   45-A
  84   1.0000       0.051336         1.3969   46-A
  85   1.0000       0.060666         1.6508   40-B
  86   1.0000       0.085505         2.3267   41-B
  87   1.0000       0.103440         2.8147   42-B
  88   0.0000       0.181144         4.9292   47-A
  89   0.0000       0.181776         4.9464   48-A
  90   0.0000       0.185589         5.0501   43-B
  91   0.0000       0.189275         5.1504   49-A
  92   0.0000       0.196714         5.3529   44-B

                 SPIN DOWN ORBITALS
  NO   OCC          E(Eh)            E(eV)    Irrep
   0   1.0000    -318.182977     -8658.1990    1-A
   1   1.0000     -88.015853     -2395.0331    1-B
   2   1.0000     -88.015848     -2395.0330    2-A
   3   1.0000     -88.014960     -2395.0088    2-B
   4   1.0000     -88.014951     -2395.0086    3-A
   5   1.0000     -38.012578     -1034.3748    4-A
   6   1.0000     -33.516412      -912.0279    3-B
   7   1.0000     -33.515556      -912.0047    5-A
   8   1.0000     -33.512677      -911.9263    4-B
   9   1.0000      -9.839885      -267.7569    6-A
  10   1.0000      -9.839654      -267.7506    5-B
  11   1.0000      -9.835375      -267.6342    7-A
  12   1.0000      -9.835074      -267.6260    6-B
  13   1.0000      -9.826444      -267.3911    8-A
  14   1.0000      -9.826093      -267.3816    7-B
  15   1.0000      -9.825109      -267.3548    9-A
  16   1.0000      -9.824703      -267.3437   10-A
  17   1.0000      -9.824700      -267.3437    8-B
  18   1.0000      -9.824697      -267.3436    9-B
  19   1.0000      -9.819211      -267.1943   10-B
  20   1.0000      -9.819209      -267.1943   11-A
  21   1.0000      -7.584672      -206.3894   11-B
  22   1.0000      -7.584668      -206.3893   12-A
  23   1.0000      -7.583934      -206.3693   12-B
  24   1.0000      -7.583927      -206.3692   13-A
  25   1.0000      -5.507612      -149.8697   13-B
  26   1.0000      -5.507612      -149.8697   14-A
  27   1.0000      -5.506919      -149.8509   14-B
  28   1.0000      -5.506918      -149.8509   15-A
  29   1.0000      -5.501226      -149.6960   15-B
  30   1.0000      -5.501226      -149.6960   16-A
  31   1.0000      -5.500645      -149.6802   17-A
  32   1.0000      -5.500645      -149.6802   16-B
  33   1.0000      -5.500373      -149.6728   17-B
  34   1.0000      -5.500373      -149.6727   18-A
  35   1.0000      -5.499913      -149.6602   19-A
  36   1.0000      -5.499913      -149.6602   18-B
  37   1.0000      -3.992349      -108.6373   20-A
  38   1.0000      -2.506892       -68.2160   19-B
  39   1.0000      -2.505466       -68.1772   20-B
  40   1.0000      -2.503821       -68.1324   21-A
  41   1.0000      -0.588833       -16.0230   22-A
  42   1.0000      -0.585125       -15.9221   23-A
  43   1.0000      -0.502621       -13.6770   24-A
  44   1.0000      -0.498661       -13.5692   25-A
  45   1.0000      -0.488668       -13.2973   21-B
  46   1.0000      -0.485221       -13.2035   22-B
  47   1.0000      -0.405697       -11.0396   23-B
  48   1.0000      -0.402401       -10.9499   24-B
  49   1.0000      -0.383371       -10.4321   26-A
  50   1.0000      -0.375662       -10.2223   27-A
  51   1.0000      -0.317627        -8.6431   28-A
  52   1.0000      -0.308779        -8.4023   29-A
  53   1.0000      -0.296981        -8.0813   25-B
  54   1.0000      -0.291604        -7.9349   26-B
  55   1.0000      -0.230129        -6.2621   30-A
  56   1.0000      -0.222488        -6.0542   31-A
  57   1.0000      -0.185817        -5.0563   32-A
  58   1.0000      -0.181294        -4.9332   27-B
  59   1.0000      -0.177203        -4.8219   28-B
  60   1.0000      -0.175056        -4.7635   33-A
  61   1.0000      -0.146033        -3.9738   29-B
  62   1.0000      -0.140654        -3.8274   30-B
  63   1.0000      -0.127968        -3.4822   34-A
  64   1.0000      -0.114050        -3.1035   31-B
  65   1.0000      -0.112939        -3.0732   35-A
  66   1.0000      -0.105402        -2.8681   32-B
  67   1.0000      -0.093015        -2.5311   36-A
  68   1.0000      -0.069800        -1.8993   37-A
  69   1.0000      -0.069580        -1.8934   33-B
  70   1.0000      -0.056126        -1.5273   34-B
  71   1.0000      -0.035771        -0.9734   35-B
  72   1.0000      -0.029541        -0.8038   36-B
  73   1.0000      -0.026787        -0.7289   38-A
  74   1.0000      -0.015780        -0.4294   39-A
  75   1.0000      -0.006418        -0.1746   40-A
  76   1.0000      -0.003677        -0.1001   37-B
  77   1.0000       0.007721         0.2101   41-A
  78   1.0000       0.012005         0.3267   38-B
  79   1.0000       0.013803         0.3756   42-A
  80   1.0000       0.026912         0.7323   43-A
  81   1.0000       0.032954         0.8967   44-A
  82   1.0000       0.041457         1.1281   39-B
  83   1.0000       0.052013         1.4154   45-A
  84   1.0000       0.056508         1.5377   46-A
  85   1.0000       0.062562         1.7024   40-B
  86   1.0000       0.089686         2.4405   41-B
  87   0.0000       0.136172         3.7054   42-B
  88   0.0000       0.182212         4.9582   47-A
  89   0.0000       0.182694         4.9714   48-A
  90   0.0000       0.185927         5.0593   43-B
  91   0.0000       0.189756         5.1635   49-A

MULLIKEN ATOMIC CHARGES AND SPIN POPULATIONS
--------------------------------------------
   0 Cu:    0.140314    0.373815
   1 S :   -0.411760    0.163539
   2 C :    0.010392   -0.007195
   3 S :   -0.388545    0.161937
   4 C :   -0.015516   -0.006331
   5 S :   -0.411760    0.163539
   6 C :    0.010392   -0.007195
   7 S :   -0.388545    0.161937
   8 C :   -0.015516   -0.006331
   9 C :   -0.042402   -0.001075
  10 C :   -0.042402   -0.001075
  11 C :   -0.169402   -0.001176
  12 H :    0.036238    0.001782
  13 C :   -0.169402   -0.001176
  14 H :    0.036238    0.001782
  15 H :    0.042920    0.001019
  16 H :    0.042920    0.001019
  17 C :   -0.076475   -0.001521
  18 C :   -0.076475   -0.001521
  19 C :   -0.148433   -0.000938
  20 H :    0.056587    0.001980
  21 C :   -0.148433   -0.000938
  22 H :    0.056587    0.001980
  23 H :    0.036238    0.001072
  24 H :    0.036238    0.001072
Sum of atomic charges         :   -2.0000000

LOEWDIN ATOMIC CHARGES AND SPIN POPULATIONS
-------------------------------------------
   0 Cu:   -0.896802    0.440564
   1 S :    0.005472    0.124711
   2 C :   -0.034706    0.005279
   3 S :   -0.004272    0.123892
   4 C :   -0.025340    0.005568
   5 S :    0.005472    0.124711
   6 C :   -0.034706    0.005279
   7 S :   -0.004272    0.123892
   8 C :   -0.025340    0.005568
   9 C :    0.294246    0.004220
  10 C :    0.294246    0.004220
  11 C :    0.305982   -0.000397
  12 H :   -0.417530    0.006112
  13 C :    0.305982   -0.000397
  14 H :   -0.417530    0.006112
  15 H :   -0.429259    0.000131
  16 H :   -0.429259    0.000131
  17 C :    0.303334    0.003968
  18 C :    0.303334    0.003968
  19 C :    0.310726   -0.000188
  20 H :   -0.439060    0.006234
  21 C :    0.310726   -0.000188
  22 H :   -0.439060    0.006234
  23 H :   -0.421194    0.000188
  24 H :   -0.421194    0.000188

  Mayer bond orders larger than 0.100000
B(  0-Cu,  1-S ) :   0.7021 B(  0-Cu,  3-S ) :   0.7003 B(  0-Cu,  5-S ) :   0.7021
B(  0-Cu,  7-S ) :   0.7003 B(  1-S ,  2-C ) :   1.1866 B(  2-C ,  6-C ) :   1.2489
B(  2-C , 17-C ) :   1.3130 B(  3-S ,  4-C ) :   1.1913 B(  4-C ,  8-C ) :   1.2435
B(  4-C , 10-C ) :   1.2991 B(  5-S ,  6-C ) :   1.1866 B(  6-C , 18-C ) :   1.3130
B(  7-S ,  8-C ) :   1.1913 B(  8-C ,  9-C ) :   1.2991 B(  9-C , 13-C ) :   1.3649
B(  9-C , 14-H ) :   0.9842 B( 10-C , 11-C ) :   1.3649 B( 10-C , 12-H ) :   0.9842
B( 11-C , 13-C ) :   1.3422 B( 11-C , 15-H ) :   0.9821 B( 13-C , 16-H ) :   0.9821
B( 17-C , 19-C ) :   1.3631 B( 17-C , 20-H ) :   0.9742 B( 18-C , 21-C ) :   1.3631
B( 18-C , 22-H ) :   0.9742 B( 19-C , 21-C ) :   1.3441 B( 19-C , 23-H ) :   0.9854
B( 21-C , 24-H ) :   0.9854

FINAL SINGLE POINT ENERGY     -3686.864613005211

DIPOLE MOMENT
-------------
                                X             Y             Z
Electronic contribution:     -0.00000      -0.00000      -0.14531
Nuclear contribution   :      0.00000       0.00000      -0.00000
                        -----------------------------------------
Total Dipole Moment    :     -0.00000      -0.00000      -0.14531
                        -----------------------------------------
Magnitude (a.u.)       :      0.14531
Magnitude (Debye)      :      0.36935

Rotational constants in cm-1:     0.033306     0.004802     0.004200
Rotational constants in MHz :   998.489090   143.945717   125.919615

                             ****ORCA TERMINATED NORMALLY****
TOTAL RUN TIME: 0 days 7 hours 0 minutes 42 seconds 66 msec
