                         Program Version 5.0.4 -  RELEASE  -
|  1> ! RIJCOSX nofrozencore ReducedPop printbasis
|  2> ! M06L ano-rcc-dzp autoaux
|  3>
|  4> %maxcore 5000
|  5> %basis
|  6> PCDTrimBas overlap
|  7> PCDTrimAuxJ Coulomb
|  8> PCDTrimAuxJK Coulomb
|  9> PCDTrimAuxC Coulomb
| 10> PCDThresh -1
| 11> end
| 12>
| 13> %basis
| 14> newgto Cu "ano-rcc-tzp" end
| 15> newgto S "ano-rcc-tzp" end
| 16> end
| 17>
| 18> %pal
| 19> nprocs 12
| 20> end
| 21>
| 22> % sym SymThresh 1e-2 end
| 23> * xyz -2 2
| 24> Cu -2.187204516055821e-05 -4.2699043909052466e-05 -0.00017245116784106538
| 25> S -0.6388056141984161 -2.1399330334163613 0.6203758556012918
| 26> C 0.8354140904043557 -3.0724021995236432 0.557372848870612
| 27> S -2.1895871879746034 0.7536012777271742 0.10018890000613398
| 28> C -2.104806447030152 2.416070401550196 -0.4240448610175358
| 29> S 2.191774636871052 -0.7493308962519795 -0.08294185639333648
| 30> C 2.082419370191651 -2.4597749005993417 0.24753290171026876
| 31> S 0.6409930630948648 2.1442034148915563 -0.6031288119884943
| 32> C -0.8578019003840351 3.028696269221629 -0.733890588663952
| 33> C -0.8286884907687861 4.430665358895095 -0.905896628984432
| 34> C -3.2430863793768587 3.2445187681963175 -0.30601381978621167
| 35> C -3.2257755143844125 4.562697624412913 -0.7616064021157758
| 36> H -4.164220678746461 2.816548043612244 0.12621934910860408
| 37> C -2.005629274551649 5.162121453162972 -1.0648183646594536
| 38> H 0.15147084820318346 4.936749489609461 -0.9461308815699513
| 39> H -4.1437165098839746 5.143925622701896 -0.7600483837413808
| 40> H -1.9523656609146154 6.220484593786704 -1.3045568592934933
| 41> C 0.8494603576166316 -4.390112323725049 1.069676911335979
| 42> C 3.263855757988931 -3.203974153333691 0.46976743929646764
| 43> C 1.9957213602841122 -5.181463881511628 0.9866989490417964
| 44> H -0.08014488703263885 -4.797505522000594 1.5085037740431204
| 45> C 3.2158728542953225 -4.582029795449346 0.6835284133149744
| 46> H 4.235550649977565 -2.677298028844862 0.4361816387607752
| 47> H 1.9494479827188826 -6.226179263691759 1.2815594131174806
| 48> H 4.140800908921581 -5.14961623739049 0.7370673156092413
| 49> *
| 50>
| 51> % eprnmr
| 52> gtensor true
| 53> Nuclei = all H {aiso,adip,aorb,fgrad,rho}
| 54> Nuclei = all Cu {aiso,adip,aorb,fgrad,rho}
| 55> end
| 56>
| 57>                          ****END OF INPUT****

CARTESIAN COORDINATES (ANGSTROEM)
---------------------------------
  Cu    -0.000038   -0.000175    0.000000
  S     -1.622010    0.362189   -1.615597
  C     -3.099574    0.578183   -0.711747
  S      1.625815   -0.344696   -1.615597
  C      3.060631   -0.757214   -0.711747
  S     -1.622010    0.362189    1.615597
  C     -3.099574    0.578183    0.711747
  S      1.625815   -0.344696    1.615597
  C      3.060631   -0.757214    0.711747
  C      4.302871   -0.851136    1.378053
  C      4.302871   -0.851136   -1.378053
  C      5.459918   -1.228077   -0.696420
  H      4.335573   -0.651780   -2.463249
  C      5.459918   -1.228077    0.696420
  H      4.335573   -0.651780    2.463249
  H      6.378540   -1.399244   -1.250749
  H      6.378540   -1.399244    1.250749
  C     -4.266741    1.017238   -1.378053
  C     -4.266741    1.017238    1.378053
  C     -5.477148    1.148865   -0.696420
  H     -4.211500    1.222185   -2.463249
  C     -5.477148    1.148865    0.696420
  H     -4.211500    1.222185    2.463249
  H     -6.383612    1.375927   -1.250749
  H     -6.383612    1.375927    1.250749

 Total Charge           Charge          ....   -2
 Multiplicity           Mult            ....    2
 Number of Electrons    NEL             ....  175
 Basis Dimension        Dim             ....  475

ORBITAL ENERGIES
----------------
                 SPIN UP ORBITALS
  NO   OCC          E(Eh)            E(eV)    Irrep
   0   1.0000    -318.181383     -8658.1556    1-A'
   1   1.0000     -88.014877     -2395.0066    1-A"
   2   1.0000     -88.014875     -2395.0065    2-A'
   3   1.0000     -88.014811     -2395.0048    2-A"
   4   1.0000     -88.014792     -2395.0043    3-A'
   5   1.0000     -38.026629     -1034.7572    4-A'
   6   1.0000     -33.529757      -912.3911    3-A"
   7   1.0000     -33.528908      -912.3680    5-A'
   8   1.0000     -33.515172      -911.9942    6-A'
   9   1.0000      -9.834731      -267.6166    7-A'
  10   1.0000      -9.834543      -267.6115    8-A'
  11   1.0000      -9.834402      -267.6077    4-A"
  12   1.0000      -9.834214      -267.6026    5-A"
  13   1.0000      -9.824725      -267.3444    9-A'
  14   1.0000      -9.824614      -267.3413   10-A'
  15   1.0000      -9.824296      -267.3327    6-A"
  16   1.0000      -9.824185      -267.3297    7-A"
  17   1.0000      -9.820062      -267.2175    8-A"
  18   1.0000      -9.820058      -267.2174   11-A'
  19   1.0000      -9.819718      -267.2081    9-A"
  20   1.0000      -9.819713      -267.2080   12-A'
  21   1.0000      -7.583493      -206.3573   10-A"
  22   1.0000      -7.583484      -206.3571   13-A'
  23   1.0000      -7.583443      -206.3560   11-A"
  24   1.0000      -7.583432      -206.3557   14-A'
  25   1.0000      -5.506734      -149.8458   12-A"
  26   1.0000      -5.506733      -149.8458   15-A'
  27   1.0000      -5.506678      -149.8443   13-A"
  28   1.0000      -5.506678      -149.8443   16-A'
  29   1.0000      -5.501396      -149.7006   14-A"
  30   1.0000      -5.501396      -149.7006   17-A'
  31   1.0000      -5.501346      -149.6992   15-A"
  32   1.0000      -5.501346      -149.6992   18-A'
  33   1.0000      -5.499547      -149.6503   16-A"
  34   1.0000      -5.499547      -149.6503   19-A'
  35   1.0000      -5.499496      -149.6489   17-A"
  36   1.0000      -5.499496      -149.6489   20-A'
  37   1.0000      -4.024220      -109.5046   21-A'
  38   1.0000      -2.545638       -69.2703   18-A"
  39   1.0000      -2.544101       -69.2285   22-A'
  40   1.0000      -2.516741       -68.4840   23-A'
  41   1.0000      -0.588111       -16.0033   24-A'
  42   1.0000      -0.587925       -15.9982   25-A'
  43   1.0000      -0.504318       -13.7232   26-A'
  44   1.0000      -0.503217       -13.6932   27-A'
  45   1.0000      -0.487261       -13.2591   19-A"
  46   1.0000      -0.486866       -13.2483   20-A"
  47   1.0000      -0.408856       -11.1255   21-A"
  48   1.0000      -0.406234       -11.0542   22-A"
  49   1.0000      -0.386792       -10.5251   28-A'
  50   1.0000      -0.380069       -10.3422   29-A'
  51   1.0000      -0.320471        -8.7205   30-A'
  52   1.0000      -0.317776        -8.6471   31-A'
  53   1.0000      -0.297843        -8.1047   23-A"
  54   1.0000      -0.294329        -8.0091   24-A"
  55   1.0000      -0.231818        -6.3081   32-A'
  56   1.0000      -0.226711        -6.1691   33-A'
  57   1.0000      -0.188112        -5.1188   34-A'
  58   1.0000      -0.187049        -5.0899   35-A'
  59   1.0000      -0.177805        -4.8383   25-A"
  60   1.0000      -0.174795        -4.7564   26-A"
  61   1.0000      -0.145462        -3.9582   27-A"
  62   1.0000      -0.142355        -3.8737   28-A"
  63   1.0000      -0.131395        -3.5754   36-A'
  64   1.0000      -0.121114        -3.2957   37-A'
  65   1.0000      -0.117210        -3.1894   38-A'
  66   1.0000      -0.109423        -2.9776   39-A'
  67   1.0000      -0.086257        -2.3472   40-A'
  68   1.0000      -0.068029        -1.8512   29-A"
  69   1.0000      -0.064268        -1.7488   30-A"
  70   1.0000      -0.063040        -1.7154   41-A'
  71   1.0000      -0.039028        -1.0620   42-A'
  72   1.0000      -0.038588        -1.0500   43-A'
  73   1.0000      -0.031390        -0.8542   31-A"
  74   1.0000      -0.027352        -0.7443   44-A'
  75   1.0000      -0.024017        -0.6535   32-A"
  76   1.0000      -0.015520        -0.4223   33-A"
  77   1.0000      -0.001272        -0.0346   34-A"
  78   1.0000      -0.000886        -0.0241   45-A'
  79   1.0000       0.000876         0.0238   46-A'
  80   1.0000       0.018223         0.4959   47-A'
  81   1.0000       0.019735         0.5370   48-A'
  82   1.0000       0.034347         0.9346   35-A"
  83   1.0000       0.051150         1.3918   36-A"
  84   1.0000       0.053131         1.4458   37-A"
  85   1.0000       0.062151         1.6912   49-A'
  86   1.0000       0.087160         2.3718   50-A'
  87   1.0000       0.105192         2.8624   38-A"
  88   0.0000       0.180202         4.9035   51-A'
  89   0.0000       0.180611         4.9147   52-A'
  90   0.0000       0.196720         5.3530   39-A"
  91   0.0000       0.196872         5.3572   40-A"
  92   0.0000       0.197625         5.3777   53-A'

                 SPIN DOWN ORBITALS
  NO   OCC          E(Eh)            E(eV)    Irrep
   0   1.0000    -318.181209     -8658.1509    1-A'
   1   1.0000     -88.013807     -2394.9774    1-A"
   2   1.0000     -88.013804     -2394.9774    2-A'
   3   1.0000     -88.013741     -2394.9756    2-A"
   4   1.0000     -88.013722     -2394.9751    3-A'
   5   1.0000     -38.010765     -1034.3255    4-A'
   6   1.0000     -33.514603      -911.9787    3-A"
   7   1.0000     -33.513787      -911.9565    5-A'
   8   1.0000     -33.510846      -911.8765    6-A'
   9   1.0000      -9.834847      -267.6198    7-A'
  10   1.0000      -9.834660      -267.6147    8-A'
  11   1.0000      -9.834518      -267.6108    4-A"
  12   1.0000      -9.834331      -267.6057    5-A"
  13   1.0000      -9.824699      -267.3437    9-A'
  14   1.0000      -9.824589      -267.3406   10-A'
  15   1.0000      -9.824271      -267.3320    6-A"
  16   1.0000      -9.824160      -267.3290    7-A"
  17   1.0000      -9.820003      -267.2159    8-A"
  18   1.0000      -9.819998      -267.2157   11-A'
  19   1.0000      -9.819658      -267.2065    9-A"
  20   1.0000      -9.819654      -267.2064   12-A'
  21   1.0000      -7.582761      -206.3374   10-A"
  22   1.0000      -7.582753      -206.3372   13-A'
  23   1.0000      -7.582711      -206.3361   11-A"
  24   1.0000      -7.582701      -206.3358   14-A'
  25   1.0000      -5.505804      -149.8205   12-A"
  26   1.0000      -5.505803      -149.8205   15-A'
  27   1.0000      -5.505748      -149.8190   13-A"
  28   1.0000      -5.505747      -149.8190   16-A'
  29   1.0000      -5.499153      -149.6396   14-A"
  30   1.0000      -5.499153      -149.6396   17-A'
  31   1.0000      -5.499105      -149.6382   15-A"
  32   1.0000      -5.499104      -149.6382   18-A'
  33   1.0000      -5.498731      -149.6281   16-A"
  34   1.0000      -5.498731      -149.6281   19-A'
  35   1.0000      -5.498681      -149.6267   17-A"
  36   1.0000      -5.498680      -149.6267   20-A'
  37   1.0000      -3.990516      -108.5874   21-A'
  38   1.0000      -2.505024       -68.1652   22-A'
  39   1.0000      -2.503608       -68.1266   18-A"
  40   1.0000      -2.502068       -68.0847   23-A'
  41   1.0000      -0.587744       -15.9933   24-A'
  42   1.0000      -0.587563       -15.9884   25-A'
  43   1.0000      -0.502989       -13.6870   26-A'
  44   1.0000      -0.501960       -13.6590   27-A'
  45   1.0000      -0.486183       -13.2297   19-A"
  46   1.0000      -0.485803       -13.2194   20-A"
  47   1.0000      -0.404877       -11.0173   21-A"
  48   1.0000      -0.402155       -10.9432   22-A"
  49   1.0000      -0.383548       -10.4369   28-A'
  50   1.0000      -0.376888       -10.2557   29-A'
  51   1.0000      -0.319277        -8.6880   30-A'
  52   1.0000      -0.316264        -8.6060   31-A'
  53   1.0000      -0.296064        -8.0563   23-A"
  54   1.0000      -0.292124        -7.9491   24-A"
  55   1.0000      -0.231257        -6.2928   32-A'
  56   1.0000      -0.226027        -6.1505   33-A'
  57   1.0000      -0.187109        -5.0915   34-A'
  58   1.0000      -0.186140        -5.0651   35-A'
  59   1.0000      -0.177274        -4.8239   25-A"
  60   1.0000      -0.173917        -4.7325   26-A"
  61   1.0000      -0.144763        -3.9392   27-A"
  62   1.0000      -0.140769        -3.8305   28-A"
  63   1.0000      -0.130276        -3.5450   36-A'
  64   1.0000      -0.120741        -3.2855   37-A'
  65   1.0000      -0.116800        -3.1783   38-A'
  66   1.0000      -0.108690        -2.9576   39-A'
  67   1.0000      -0.084997        -2.3129   40-A'
  68   1.0000      -0.066551        -1.8109   29-A"
  69   1.0000      -0.061376        -1.6701   41-A'
  70   1.0000      -0.049644        -1.3509   30-A"
  71   1.0000      -0.037339        -1.0161   42-A'
  72   1.0000      -0.036572        -0.9952   43-A'
  73   1.0000      -0.021256        -0.5784   44-A'
  74   1.0000      -0.020257        -0.5512   31-A"
  75   1.0000      -0.014636        -0.3983   32-A"
  76   1.0000      -0.002773        -0.0755   33-A"
  77   1.0000       0.007896         0.2149   34-A"
  78   1.0000       0.009918         0.2699   45-A'
  79   1.0000       0.013125         0.3572   46-A'
  80   1.0000       0.026620         0.7244   47-A'
  81   1.0000       0.034023         0.9258   48-A'
  82   1.0000       0.042694         1.1618   35-A"
  83   1.0000       0.053951         1.4681   36-A"
  84   1.0000       0.058587         1.5942   37-A"
  85   1.0000       0.064010         1.7418   49-A'
  86   1.0000       0.091336         2.4854   50-A'
  87   0.0000       0.138176         3.7600   38-A"
  88   0.0000       0.181295         4.9333   51-A'
  89   0.0000       0.181733         4.9452   52-A'
  90   0.0000       0.197758         5.3813   53-A'
  91   0.0000       0.198694         5.4067   39-A"

MULLIKEN ATOMIC CHARGES AND SPIN POPULATIONS
--------------------------------------------
   0 Cu:    0.141866    0.374994
   1 S :   -0.415784    0.163088
   2 C :    0.018628   -0.007656
   3 S :   -0.416334    0.163068
   4 C :    0.018745   -0.007653
   5 S :   -0.415784    0.163088
   6 C :    0.018628   -0.007656
   7 S :   -0.416334    0.163068
   8 C :    0.018745   -0.007653
   9 C :   -0.082109   -0.001504
  10 C :   -0.082109   -0.001504
  11 C :   -0.136142   -0.000560
  12 H :    0.045809    0.001849
  13 C :   -0.136142   -0.000560
  14 H :    0.045809    0.001849
  15 H :    0.034574    0.001041
  16 H :    0.034574    0.001041
  17 C :   -0.081010   -0.001501
  18 C :   -0.081010   -0.001501
  19 C :   -0.136045   -0.000533
  20 H :    0.043929    0.001829
  21 C :   -0.136045   -0.000533
  22 H :    0.043929    0.001829
  23 H :    0.034805    0.001035
  24 H :    0.034805    0.001035
Sum of atomic charges         :   -2.0000000

LOEWDIN ATOMIC CHARGES AND SPIN POPULATIONS
-------------------------------------------
   0 Cu:   -0.896066    0.441842
   1 S :    0.004005    0.124335
   2 C :   -0.038709    0.004949
   3 S :    0.004449    0.124288
   4 C :   -0.038666    0.004971
   5 S :    0.004005    0.124335
   6 C :   -0.038709    0.004949
   7 S :    0.004449    0.124288
   8 C :   -0.038666    0.004971
   9 C :    0.300579    0.003958
  10 C :    0.300579    0.003958
  11 C :    0.307943    0.000073
  12 H :   -0.428895    0.006000
  13 C :    0.307943    0.000073
  14 H :   -0.428895    0.006000
  15 H :   -0.421438    0.000236
  16 H :   -0.421438    0.000236
  17 C :    0.300000    0.003962
  18 C :    0.300000    0.003962
  19 C :    0.307542    0.000092
  20 H :   -0.427050    0.005977
  21 C :    0.307542    0.000092
  22 H :   -0.427050    0.005977
  23 H :   -0.421728    0.000239
  24 H :   -0.421728    0.000239

  Mayer bond orders larger than 0.100000
B(  0-Cu,  1-S ) :   0.7010 B(  0-Cu,  3-S ) :   0.7009 B(  0-Cu,  5-S ) :   0.7010
B(  0-Cu,  7-S ) :   0.7009 B(  1-S ,  2-C ) :   1.1825 B(  2-C ,  6-C ) :   1.2491
B(  2-C , 17-C ) :   1.3149 B(  3-S ,  4-C ) :   1.1831 B(  4-C ,  8-C ) :   1.2485
B(  4-C , 10-C ) :   1.3154 B(  5-S ,  6-C ) :   1.1825 B(  6-C , 18-C ) :   1.3149
B(  7-S ,  8-C ) :   1.1831 B(  8-C ,  9-C ) :   1.3154 B(  9-C , 13-C ) :   1.3593
B(  9-C , 14-H ) :   0.9800 B( 10-C , 11-C ) :   1.3593 B( 10-C , 12-H ) :   0.9800
B( 11-C , 13-C ) :   1.3427 B( 11-C , 15-H ) :   0.9874 B( 13-C , 16-H ) :   0.9874
B( 17-C , 19-C ) :   1.3593 B( 17-C , 20-H ) :   0.9809 B( 18-C , 21-C ) :   1.3593
B( 18-C , 22-H ) :   0.9809 B( 19-C , 21-C ) :   1.3428 B( 19-C , 23-H ) :   0.9873
B( 21-C , 24-H ) :   0.9873

FINAL SINGLE POINT ENERGY     -3686.911262240118

DIPOLE MOMENT
-------------
                                X             Y             Z
Electronic contribution:     -0.18869      -0.87290      -0.00000
Nuclear contribution   :      0.22326       1.02643      -0.00000
                        -----------------------------------------
Total Dipole Moment    :      0.03457       0.15352      -0.00000
                        -----------------------------------------
Magnitude (a.u.)       :      0.15737
Magnitude (Debye)      :      0.40000

Rotational constants in cm-1:     0.033345     0.004802     0.004200
Rotational constants in MHz :   999.644652   143.969709   125.919615

                             ****ORCA TERMINATED NORMALLY****
TOTAL RUN TIME: 0 days 5 hours 21 minutes 28 seconds 902 msec
