                         Program Version 5.0.4 -  RELEASE  -
|  1> ! RIJCOSX nofrozencore ReducedPop printbasis
|  2> ! M06L ano-rcc-dzp autoaux
|  3>
|  4> %maxcore 5000
|  5> %basis
|  6> PCDTrimBas overlap
|  7> PCDTrimAuxJ Coulomb
|  8> PCDTrimAuxJK Coulomb
|  9> PCDTrimAuxC Coulomb
| 10> PCDThresh -1
| 11> end
| 12>
| 13> %basis
| 14> newgto Cu "ano-rcc-tzp" end
| 15> newgto S "ano-rcc-tzp" end
| 16> end
| 17>
| 18> %pal
| 19> nprocs 12
| 20> end
| 21>
| 22> % sym SymThresh 1e-2 end
| 23> * xyz -2 2
| 24> Cu 7.715965995793056e-07 -6.264343397842919e-07 -1.1053825336357944e-07
| 25> S -1.0938891567838442 -0.9355939971137391 -1.817551297306755
| 26> C -1.987827998746407 -2.2744912679836404 -1.1467241856976886
| 27> S 1.0205936654491479 1.5857645669152072 -1.3487527908165005
| 28> C 2.0216070220766063 2.50728278421443 -0.25764774451660755
| 29> S -1.0204023094924524 -1.5859199226314737 1.3487253773296664
| 30> C -2.021667978207973 -2.507233295901587 0.25765647703862327
| 31> S 1.0937001156169475 0.9357474735269863 1.817578379178829
| 32> C 1.9878835537015767 2.274446164711176 1.1467162269434465
| 33> C 2.7067358847321463 3.1421938578440303 1.985286207517833
| 34> C 2.8724054321678003 3.5115087712191615 -0.7481610406816238
| 35> C 3.6126653914816753 4.329632695145824 0.09704995570771625
| 36> H 2.9335827242760653 3.64693211812686 -1.8262732843889369
| 37> C 3.506769760241458 4.160993892738555 1.4816152370981888
| 38> H 2.632312607487589 2.990957878663851 3.0604584623842763
| 39> H 4.2563383256557525 5.099285966857101 -0.32330580769021755
| 40> H 4.051348075923049 4.808435673738569 2.1654510102798286
| 41> C -2.706435869155277 -3.1424361557593072 -1.9853289553117865
| 42> C -2.8727154785004645 -3.5112583296574673 0.7482052254728707
| 43> C -3.506556799579974 -4.161166788616335 -1.4816457456561172
| 44> H -2.631745483986898 -2.9914183079035923 -3.0605397080004986
| 45> C -3.612874494160161 -4.329462931439743 -0.09701999984105472
| 46> H -2.934154341855986 -3.646469315323978 1.8263549416480742
| 47> H -4.050950699172 -4.8087581082781625 -2.165508921292618
| 48> H -4.256727205839675 -5.098970064804455 0.32336053515760493
| 49> *
| 50>
| 51> % eprnmr
| 52> gtensor true
| 53> Nuclei = all H {aiso,adip,aorb,fgrad,rho}
| 54> Nuclei = all Cu {aiso,adip,aorb,fgrad,rho}
| 55> end
| 56>
| 57>                          ****END OF INPUT****

CARTESIAN COORDINATES (ANGSTROEM)
---------------------------------
  Cu     0.000000    0.000000    0.000000
  S     -1.610309   -0.142473   -1.661931
  C     -0.711687   -0.020011   -3.151642
  S     -1.610309   -0.142473    1.661931
  C     -0.711687   -0.020011    3.151642
  S      1.610309    0.142473   -1.661931
  C      0.711687    0.020011   -3.151642
  S      1.610309    0.142473    1.661931
  C      0.711687    0.020011    3.151642
  C      1.381390   -0.026333    4.385460
  C     -1.381390    0.026333    4.385460
  C     -0.698870    0.027692    5.596188
  H     -2.469392    0.050410    4.375043
  C      0.698870   -0.027692    5.596188
  H      2.469392   -0.050410    4.375043
  H     -1.255658    0.059323    6.530201
  H      1.255658   -0.059323    6.530201
  C     -1.381390    0.026333   -4.385460
  C      1.381390   -0.026333   -4.385460
  C     -0.698870    0.027692   -5.596188
  H     -2.469392    0.050410   -4.375043
  C      0.698870   -0.027692   -5.596188
  H      2.469392   -0.050410   -4.375043
  H     -1.255658    0.059323   -6.530201
  H      1.255658   -0.059323   -6.530201

 Total Charge           Charge          ....   -2
 Multiplicity           Mult            ....    2
 Number of Electrons    NEL             ....  175
 Basis Dimension        Dim             ....  475

ORBITAL ENERGIES
----------------
                 SPIN UP ORBITALS
  NO   OCC          E(Eh)            E(eV)    Irrep
   0   1.0000    -318.181163     -8658.1496    1-Ag
   1   1.0000     -88.014586     -2394.9987    1-Au
   2   1.0000     -88.014574     -2394.9983    1-Bg
   3   1.0000     -88.014570     -2394.9982    1-Bu
   4   1.0000     -88.014537     -2394.9973    2-Ag
   5   1.0000     -38.026332     -1034.7491    3-Ag
   6   1.0000     -33.529460      -912.3830    2-Bu
   7   1.0000     -33.528622      -912.3602    2-Au
   8   1.0000     -33.514892      -911.9866    3-Bu
   9   1.0000      -9.833057      -267.5711    3-Au
  10   1.0000      -9.833051      -267.5709    4-Ag
  11   1.0000      -9.832726      -267.5621    2-Bg
  12   1.0000      -9.832723      -267.5620    4-Bu
  13   1.0000      -9.824657      -267.3425    4-Au
  14   1.0000      -9.824656      -267.3425    5-Ag
  15   1.0000      -9.824249      -267.3314    3-Bg
  16   1.0000      -9.824249      -267.3314    5-Bu
  17   1.0000      -9.817304      -267.1424    4-Bg
  18   1.0000      -9.817303      -267.1424    6-Bu
  19   1.0000      -9.817299      -267.1423    5-Au
  20   1.0000      -9.817299      -267.1423    6-Ag
  21   1.0000      -7.583226      -206.3501    5-Bg
  22   1.0000      -7.583226      -206.3501    7-Bu
  23   1.0000      -7.583222      -206.3500    6-Au
  24   1.0000      -7.583211      -206.3496    7-Ag
  25   1.0000      -5.506440      -149.8379    6-Bg
  26   1.0000      -5.506440      -149.8378    8-Bu
  27   1.0000      -5.506439      -149.8378    7-Au
  28   1.0000      -5.506439      -149.8378    8-Ag
  29   1.0000      -5.501150      -149.6939    7-Bg
  30   1.0000      -5.501150      -149.6939    9-Bu
  31   1.0000      -5.501150      -149.6939    8-Au
  32   1.0000      -5.501149      -149.6939    9-Ag
  33   1.0000      -5.499271      -149.6428    9-Au
  34   1.0000      -5.499271      -149.6428   10-Ag
  35   1.0000      -5.499271      -149.6428    8-Bg
  36   1.0000      -5.499270      -149.6428   10-Bu
  37   1.0000      -4.023971      -109.4978   11-Ag
  38   1.0000      -2.545380       -69.2633   11-Bu
  39   1.0000      -2.543860       -69.2220   10-Au
  40   1.0000      -2.516513       -68.4778   12-Bu
  41   1.0000      -0.588676       -16.0187   12-Ag
  42   1.0000      -0.588557       -16.0155   11-Au
  43   1.0000      -0.503802       -13.7092   13-Ag
  44   1.0000      -0.502696       -13.6791   12-Au
  45   1.0000      -0.489695       -13.3253   13-Bu
  46   1.0000      -0.489448       -13.3186    9-Bg
  47   1.0000      -0.409731       -11.1493   14-Bu
  48   1.0000      -0.407126       -11.0785   10-Bg
  49   1.0000      -0.387266       -10.5380   14-Ag
  50   1.0000      -0.380633       -10.3576   13-Au
  51   1.0000      -0.321610        -8.7514   15-Ag
  52   1.0000      -0.318954        -8.6792   14-Au
  53   1.0000      -0.300090        -8.1659   15-Bu
  54   1.0000      -0.296615        -8.0713   11-Bg
  55   1.0000      -0.232272        -6.3204   16-Ag
  56   1.0000      -0.227037        -6.1780   15-Au
  57   1.0000      -0.189520        -5.1571   17-Ag
  58   1.0000      -0.188626        -5.1328   16-Au
  59   1.0000      -0.177666        -4.8345   16-Bu
  60   1.0000      -0.174718        -4.7543   12-Bg
  61   1.0000      -0.146923        -3.9980   17-Bu
  62   1.0000      -0.143930        -3.9165   13-Bg
  63   1.0000      -0.130651        -3.5552   18-Ag
  64   1.0000      -0.116730        -3.1764   18-Bu
  65   1.0000      -0.116508        -3.1703   14-Bg
  66   1.0000      -0.113402        -3.0858   17-Au
  67   1.0000      -0.087053        -2.3688   19-Ag
  68   1.0000      -0.069486        -1.8908   19-Bu
  69   1.0000      -0.065158        -1.7730   15-Bg
  70   1.0000      -0.062448        -1.6993   18-Au
  71   1.0000      -0.038138        -1.0378   16-Bg
  72   1.0000      -0.036574        -0.9952   20-Bu
  73   1.0000      -0.031400        -0.8544   17-Bg
  74   1.0000      -0.029960        -0.8153   20-Ag
  75   1.0000      -0.025205        -0.6859   21-Ag
  76   1.0000      -0.019191        -0.5222   19-Au
  77   1.0000      -0.002751        -0.0749   22-Ag
  78   1.0000      -0.000459        -0.0125   23-Ag
  79   1.0000       0.001756         0.0478   18-Bg
  80   1.0000       0.018471         0.5026   24-Ag
  81   1.0000       0.019071         0.5189   20-Au
  82   1.0000       0.034600         0.9415   21-Bu
  83   1.0000       0.050007         1.3608   21-Au
  84   1.0000       0.052164         1.4195   25-Ag
  85   1.0000       0.062775         1.7082   22-Bu
  86   1.0000       0.087335         2.3765   19-Bg
  87   1.0000       0.105378         2.8675   20-Bg
  88   0.0000       0.181471         4.9381   26-Ag
  89   0.0000       0.181581         4.9411   22-Au
  90   0.0000       0.196736         5.3535   21-Bg
  91   0.0000       0.196846         5.3564   23-Bu
  92   0.0000       0.200779         5.4635   24-Bu

                 SPIN DOWN ORBITALS
  NO   OCC          E(Eh)            E(eV)    Irrep
   0   1.0000    -318.180989     -8658.1449    1-Ag
   1   1.0000     -88.013517     -2394.9696    1-Au
   2   1.0000     -88.013505     -2394.9692    1-Bg
   3   1.0000     -88.013501     -2394.9691    1-Bu
   4   1.0000     -88.013468     -2394.9682    2-Ag
   5   1.0000     -38.010487     -1034.3179    3-Ag
   6   1.0000     -33.514324      -911.9711    2-Bu
   7   1.0000     -33.513517      -911.9492    2-Au
   8   1.0000     -33.510572      -911.8690    3-Bu
   9   1.0000      -9.833167      -267.5741    3-Au
  10   1.0000      -9.833161      -267.5739    4-Ag
  11   1.0000      -9.832836      -267.5651    2-Bg
  12   1.0000      -9.832833      -267.5650    4-Bu
  13   1.0000      -9.824635      -267.3419    4-Au
  14   1.0000      -9.824635      -267.3419    5-Ag
  15   1.0000      -9.824227      -267.3308    3-Bg
  16   1.0000      -9.824227      -267.3308    5-Bu
  17   1.0000      -9.817245      -267.1408    4-Bg
  18   1.0000      -9.817244      -267.1408    6-Bu
  19   1.0000      -9.817241      -267.1407    5-Au
  20   1.0000      -9.817240      -267.1407    6-Ag
  21   1.0000      -7.582496      -206.3302    5-Bg
  22   1.0000      -7.582496      -206.3302    7-Bu
  23   1.0000      -7.582493      -206.3301    6-Au
  24   1.0000      -7.582481      -206.3298    7-Ag
  25   1.0000      -5.505513      -149.8126    6-Bg
  26   1.0000      -5.505513      -149.8126    8-Bu
  27   1.0000      -5.505512      -149.8126    7-Au
  28   1.0000      -5.505512      -149.8126    8-Ag
  29   1.0000      -5.498922      -149.6333    7-Bg
  30   1.0000      -5.498921      -149.6333    9-Bu
  31   1.0000      -5.498921      -149.6333    8-Au
  32   1.0000      -5.498921      -149.6332    9-Ag
  33   1.0000      -5.498447      -149.6203    9-Au
  34   1.0000      -5.498447      -149.6203    8-Bg
  35   1.0000      -5.498447      -149.6203   10-Ag
  36   1.0000      -5.498446      -149.6203   10-Bu
  37   1.0000      -3.990304      -108.5817   11-Ag
  38   1.0000      -2.504823       -68.1597   11-Bu
  39   1.0000      -2.503403       -68.1211   12-Bu
  40   1.0000      -2.501856       -68.0790   10-Au
  41   1.0000      -0.588299       -16.0084   12-Ag
  42   1.0000      -0.588191       -16.0055   11-Au
  43   1.0000      -0.502474       -13.6730   13-Ag
  44   1.0000      -0.501440       -13.6449   12-Au
  45   1.0000      -0.488667       -13.2973   13-Bu
  46   1.0000      -0.488445       -13.2913    9-Bg
  47   1.0000      -0.405751       -11.0411   14-Bu
  48   1.0000      -0.403054       -10.9677   10-Bg
  49   1.0000      -0.384053       -10.4506   14-Ag
  50   1.0000      -0.377486       -10.2719   13-Au
  51   1.0000      -0.320408        -8.7187   15-Ag
  52   1.0000      -0.317437        -8.6379   14-Au
  53   1.0000      -0.298293        -8.1170   15-Bu
  54   1.0000      -0.294394        -8.0109   11-Bg
  55   1.0000      -0.231694        -6.3047   16-Ag
  56   1.0000      -0.226331        -6.1588   15-Au
  57   1.0000      -0.188546        -5.1306   17-Ag
  58   1.0000      -0.187739        -5.1086   16-Au
  59   1.0000      -0.177139        -4.8202   16-Bu
  60   1.0000      -0.173860        -4.7310   12-Bg
  61   1.0000      -0.146242        -3.9795   17-Bu
  62   1.0000      -0.142432        -3.8758   13-Bg
  63   1.0000      -0.129386        -3.5208   18-Ag
  64   1.0000      -0.116514        -3.1705   18-Bu
  65   1.0000      -0.116212        -3.1623   14-Bg
  66   1.0000      -0.112512        -3.0616   17-Au
  67   1.0000      -0.085628        -2.3301   19-Ag
  68   1.0000      -0.068027        -1.8511   19-Bu
  69   1.0000      -0.060728        -1.6525   18-Au
  70   1.0000      -0.050979        -1.3872   15-Bg
  71   1.0000      -0.035921        -0.9775   16-Bg
  72   1.0000      -0.035626        -0.9694   20-Bu
  73   1.0000      -0.024469        -0.6658   20-Ag
  74   1.0000      -0.020685        -0.5629   21-Ag
  75   1.0000      -0.018327        -0.4987   19-Au
  76   1.0000      -0.002554        -0.0695   17-Bg
  77   1.0000       0.006788         0.1847   22-Ag
  78   1.0000       0.010398         0.2829   23-Ag
  79   1.0000       0.014021         0.3815   18-Bg
  80   1.0000       0.025829         0.7029   20-Au
  81   1.0000       0.034227         0.9314   24-Ag
  82   1.0000       0.042861         1.1663   21-Bu
  83   1.0000       0.052871         1.4387   21-Au
  84   1.0000       0.057813         1.5732   25-Ag
  85   1.0000       0.064673         1.7598   22-Bu
  86   1.0000       0.091686         2.4949   19-Bg
  87   0.0000       0.138210         3.7609   20-Bg
  88   0.0000       0.182596         4.9687   26-Ag
  89   0.0000       0.182687         4.9712   22-Au
  90   0.0000       0.198584         5.4038   21-Bg
  91   0.0000       0.198645         5.4054   23-Bu

MULLIKEN ATOMIC CHARGES AND SPIN POPULATIONS
--------------------------------------------
   0 Cu:    0.143344    0.374778
   1 S :   -0.424241    0.162836
   2 C :    0.023899   -0.007185
   3 S :   -0.424241    0.162836
   4 C :    0.023899   -0.007185
   5 S :   -0.424241    0.162836
   6 C :    0.023899   -0.007185
   7 S :   -0.424241    0.162836
   8 C :    0.023899   -0.007185
   9 C :   -0.089269   -0.001497
  10 C :   -0.089269   -0.001497
  11 C :   -0.138669   -0.000861
  12 H :    0.061687    0.001937
  13 C :   -0.138669   -0.000861
  14 H :    0.061687    0.001937
  15 H :    0.030756    0.001075
  16 H :    0.030756    0.001075
  17 C :   -0.089269   -0.001497
  18 C :   -0.089269   -0.001497
  19 C :   -0.138669   -0.000861
  20 H :    0.061687    0.001937
  21 C :   -0.138669   -0.000861
  22 H :    0.061687    0.001937
  23 H :    0.030756    0.001075
  24 H :    0.030756    0.001075
Sum of atomic charges         :   -2.0000000

LOEWDIN ATOMIC CHARGES AND SPIN POPULATIONS
-------------------------------------------
   0 Cu:   -0.894623    0.441402
   1 S :    0.007829    0.124282
   2 C :   -0.038275    0.005412
   3 S :    0.007829    0.124282
   4 C :   -0.038275    0.005412
   5 S :    0.007829    0.124282
   6 C :   -0.038275    0.005412
   7 S :    0.007829    0.124282
   8 C :   -0.038275    0.005412
   9 C :    0.304837    0.003868
  10 C :    0.304837    0.003868
  11 C :    0.311411   -0.000127
  12 H :   -0.443836    0.006004
  13 C :    0.311411   -0.000127
  14 H :   -0.443836    0.006004
  15 H :   -0.418310    0.000209
  16 H :   -0.418310    0.000209
  17 C :    0.304837    0.003868
  18 C :    0.304837    0.003868
  19 C :    0.311411   -0.000127
  20 H :   -0.443836    0.006004
  21 C :    0.311411   -0.000127
  22 H :   -0.443836    0.006004
  23 H :   -0.418310    0.000209
  24 H :   -0.418310    0.000209

  Mayer bond orders larger than 0.100000
B(  0-Cu,  1-S ) :   0.6999 B(  0-Cu,  3-S ) :   0.6999 B(  0-Cu,  5-S ) :   0.6999
B(  0-Cu,  7-S ) :   0.6999 B(  1-S ,  2-C ) :   1.1842 B(  2-C ,  6-C ) :   1.2448
B(  2-C , 17-C ) :   1.3156 B(  3-S ,  4-C ) :   1.1842 B(  4-C ,  8-C ) :   1.2448
B(  4-C , 10-C ) :   1.3156 B(  5-S ,  6-C ) :   1.1842 B(  6-C , 18-C ) :   1.3156
B(  7-S ,  8-C ) :   1.1842 B(  8-C ,  9-C ) :   1.3156 B(  9-C , 13-C ) :   1.3647
B(  9-C , 14-H ) :   0.9714 B( 10-C , 11-C ) :   1.3647 B( 10-C , 12-H ) :   0.9714
B( 11-C , 13-C ) :   1.3367 B( 11-C , 15-H ) :   0.9887 B( 13-C , 16-H ) :   0.9887
B( 17-C , 19-C ) :   1.3647 B( 17-C , 20-H ) :   0.9714 B( 18-C , 21-C ) :   1.3647
B( 18-C , 22-H ) :   0.9714 B( 19-C , 21-C ) :   1.3367 B( 19-C , 23-H ) :   0.9887
B( 21-C , 24-H ) :   0.9887

FINAL SINGLE POINT ENERGY     -3686.927075343912

DIPOLE MOMENT
-------------
                                X             Y             Z
Electronic contribution:     -0.00000      -0.00000       0.00000
Nuclear contribution   :      0.00000      -0.00000       0.00000
                        -----------------------------------------
Total Dipole Moment    :     -0.00000      -0.00000       0.00000
                        -----------------------------------------
Magnitude (a.u.)       :      0.00000
Magnitude (Debye)      :      0.00000

Rotational constants in cm-1:     0.033337     0.004802     0.004200
Rotational constants in MHz :   999.408475   143.964809   125.919615

                             ****ORCA TERMINATED NORMALLY****
TOTAL RUN TIME: 0 days 6 hours 45 minutes 3 seconds 616 msec
