                         Program Version 5.0.4 -  RELEASE  -
|  1> ! RIJCOSX nofrozencore ReducedPop printbasis
|  2> ! M06L ano-rcc-dzp autoaux
|  3>
|  4> %maxcore 5000
|  5> %basis
|  6> PCDTrimBas overlap
|  7> PCDTrimAuxJ Coulomb
|  8> PCDTrimAuxJK Coulomb
|  9> PCDTrimAuxC Coulomb
| 10> PCDThresh -1
| 11> end
| 12>
| 13> %basis
| 14> newgto Cu "ano-rcc-tzp" end
| 15> newgto S "ano-rcc-tzp" end
| 16> end
| 17>
| 18> %pal
| 19> nprocs 12
| 20> end
| 21>
| 22> % sym SymThresh 1e-2 end
| 23> * xyz -2 2
| 24> Cu -1.5560326467597048e-06 -5.84133183973605e-06 6.764648847529675e-07
| 25> S 0.47010505462956376 1.6366704497353306 -1.5724585301777867
| 26> C 0.29584163774082034 0.8315867114383755 -3.108298547005731
| 27> S 0.3481045373406717 1.4844078367983622 1.7456970959586442
| 28> C 0.06458839516394599 0.5432503573289946 3.1842794936464145
| 29> S -0.3481058182852374 -1.4844100853839917 -1.74566919787549
| 30> C -0.06463747676702138 -0.5434259938835674 -3.184166145523636
| 31> S -0.4701039939113962 -1.6366684760065375 1.57243662174855
| 32> C -0.29588202743018405 -0.8317566989900834 3.108119969556826
| 33> C -0.5085600996424948 -1.5268028948018262 4.304293667472677
| 34> C 0.18935993314917102 1.13543391782572 4.452123978585803
| 35> C -0.03039344564555145 0.41010202022478703 5.611590313358802
| 36> H 0.4456486128303215 2.112109618451004 4.496316102096712
| 37> C -0.38397235498965687 -0.936383095695304 5.560749972233941
| 38> H -0.8016122579659513 -2.645681063689107 4.231306289451474
| 39> H 0.09355383767620506 0.9856921431150828 6.73562342718432
| 40> H -0.5291635807773925 -1.4170679684075433 6.311244007091563
| 41> C 0.5068047023047545 1.5201187492006247 -4.304538718015616
| 42> C -0.19111227953264812 -1.1421279031954363 -4.4525977623153015
| 43> C 0.386754480520686 0.94557759476113 -5.5753047583353625
| 44> H 0.8239407984706211 2.7309014164508105 -4.226069804838481
| 45> C 0.03208363110426138 -0.40222809078912886 -5.5959956850093535
| 46> H -0.4231911953456451 -2.0264918611930245 -4.4920583699500565
| 47> H 0.49497426875780415 1.3038558635720108 -6.134748753015609
| 48> H -0.11447276755330182 -1.0828014176449428 -6.924959249273225
| 49> *
| 50>
| 51> % eprnmr
| 52> gtensor true
| 53> Nuclei = all H {aiso,adip,aorb,fgrad,rho}
| 54> Nuclei = all Cu {aiso,adip,aorb,fgrad,rho}
| 55> end
| 56>
| 57>                          ****END OF INPUT****

CARTESIAN COORDINATES (ANGSTROEM)
---------------------------------
  Cu    -0.000006    0.000001    0.000000
  S      1.697482   -1.578249    0.000000
  C      0.869745   -3.111932    0.000000
  S      1.529590    1.741395    0.000000
  C      0.551783    3.183467    0.000000
  S     -1.529592   -1.741367    0.000000
  C     -0.551965   -3.183353    0.000000
  S     -1.697480    1.578227    0.000000
  C     -0.869920    3.111754    0.000000
  C     -1.592453    4.310545    0.000000
  C      1.160195    4.449767    0.000000
  C      0.406458    5.611938    0.000000
  H      2.170070    4.490798    0.000000
  C     -0.985829    5.565459    0.000000
  H     -2.749294    4.241173    0.000000
  H      0.998162    6.734437    0.000000
  H     -1.485282    6.317740    0.000000
  C      1.585541   -4.310768    0.000000
  C     -1.167116   -4.450219    0.000000
  C      0.995383   -5.580047    0.000000
  H      2.837407   -4.236211    0.000000
  C     -0.398365   -5.596364    0.000000
  H     -2.081543   -4.486817    0.000000
  H      1.367650   -6.140823    0.000000
  H     -1.097991   -6.923513    0.000000

 Total Charge           Charge          ....   -2
 Multiplicity           Mult            ....    2
 Number of Electrons    NEL             ....  175
 Basis Dimension        Dim             ....  475

ORBITAL ENERGIES
----------------
                 SPIN UP ORBITALS
  NO   OCC          E(Eh)            E(eV)    Irrep
   0   1.0000    -318.184341     -8658.2361    1-A'
   1   1.0000     -88.019174     -2395.1235    2-A'
   2   1.0000     -88.017499     -2395.0779    3-A'
   3   1.0000     -88.016605     -2395.0536    4-A'
   4   1.0000     -88.016415     -2395.0484    5-A'
   5   1.0000     -38.029563     -1034.8370    6-A'
   6   1.0000     -33.532717      -912.4716    7-A'
   7   1.0000     -33.531865      -912.4484    8-A'
   8   1.0000     -33.518057      -912.0727    1-A"
   9   1.0000      -9.860617      -268.3210    9-A'
  10   1.0000      -9.842326      -267.8233   10-A'
  11   1.0000      -9.839258      -267.7398   11-A'
  12   1.0000      -9.837430      -267.6901   12-A'
  13   1.0000      -9.835778      -267.6451   13-A'
  14   1.0000      -9.835033      -267.6249   14-A'
  15   1.0000      -9.833932      -267.5949   15-A'
  16   1.0000      -9.825939      -267.3774   16-A'
  17   1.0000      -9.811670      -266.9891   17-A'
  18   1.0000      -9.808621      -266.9061   18-A'
  19   1.0000      -9.805672      -266.8259   19-A'
  20   1.0000      -9.802604      -266.7424   20-A'
  21   1.0000      -7.587821      -206.4751   21-A'
  22   1.0000      -7.586175      -206.4303   22-A'
  23   1.0000      -7.585259      -206.4054   23-A'
  24   1.0000      -7.585108      -206.4013   24-A'
  25   1.0000      -5.511059      -149.9635   25-A'
  26   1.0000      -5.509377      -149.9178   26-A'
  27   1.0000      -5.508545      -149.8951   27-A'
  28   1.0000      -5.508331      -149.8893   28-A'
  29   1.0000      -5.505639      -149.8161   29-A'
  30   1.0000      -5.504090      -149.7739   30-A'
  31   1.0000      -5.503946      -149.7700    2-A"
  32   1.0000      -5.503178      -149.7491   31-A'
  33   1.0000      -5.503043      -149.7454   32-A'
  34   1.0000      -5.502259      -149.7241    3-A"
  35   1.0000      -5.501245      -149.6965    4-A"
  36   1.0000      -5.501134      -149.6935    5-A"
  37   1.0000      -4.027169      -109.5848   33-A'
  38   1.0000      -2.548634       -69.3519   34-A'
  39   1.0000      -2.547076       -69.3095   35-A'
  40   1.0000      -2.519606       -68.5620    6-A"
  41   1.0000      -0.598031       -16.2733   36-A'
  42   1.0000      -0.592571       -16.1247   37-A'
  43   1.0000      -0.523426       -14.2432   38-A'
  44   1.0000      -0.509325       -13.8594   39-A'
  45   1.0000      -0.496550       -13.5118   40-A'
  46   1.0000      -0.492760       -13.4087   41-A'
  47   1.0000      -0.426394       -11.6028   42-A'
  48   1.0000      -0.414013       -11.2659   43-A'
  49   1.0000      -0.390276       -10.6200   44-A'
  50   1.0000      -0.385373       -10.4865   45-A'
  51   1.0000      -0.331516        -9.0210   46-A'
  52   1.0000      -0.325106        -8.8466   47-A'
  53   1.0000      -0.321771        -8.7558   48-A'
  54   1.0000      -0.306493        -8.3401   49-A'
  55   1.0000      -0.242267        -6.5924   50-A'
  56   1.0000      -0.234959        -6.3936   51-A'
  57   1.0000      -0.195076        -5.3083   52-A'
  58   1.0000      -0.192097        -5.2272   53-A'
  59   1.0000      -0.174176        -4.7396   54-A'
  60   1.0000      -0.172212        -4.6861   55-A'
  61   1.0000      -0.158650        -4.3171   56-A'
  62   1.0000      -0.152114        -4.1392   57-A'
  63   1.0000      -0.122469        -3.3326   58-A'
  64   1.0000      -0.121359        -3.3023    7-A"
  65   1.0000      -0.119284        -3.2459    8-A"
  66   1.0000      -0.106379        -2.8947   59-A'
  67   1.0000      -0.086815        -2.3623   60-A'
  68   1.0000      -0.070942        -1.9304   61-A'
  69   1.0000      -0.066756        -1.8165   62-A'
  70   1.0000      -0.062781        -1.7083   63-A'
  71   1.0000      -0.042358        -1.1526    9-A"
  72   1.0000      -0.040180        -1.0934   10-A"
  73   1.0000      -0.034403        -0.9362   64-A'
  74   1.0000      -0.031955        -0.8695   65-A'
  75   1.0000      -0.029467        -0.8018   11-A"
  76   1.0000      -0.022518        -0.6127   12-A"
  77   1.0000      -0.005951        -0.1619   13-A"
  78   1.0000      -0.003618        -0.0985   66-A'
  79   1.0000      -0.001620        -0.0441   14-A"
  80   1.0000       0.015463         0.4208   67-A'
  81   1.0000       0.016078         0.4375   68-A'
  82   1.0000       0.031947         0.8693   69-A'
  83   1.0000       0.047009         1.2792   15-A"
  84   1.0000       0.049471         1.3462   16-A"
  85   1.0000       0.059736         1.6255   17-A"
  86   1.0000       0.084779         2.3070   18-A"
  87   1.0000       0.101966         2.7746   70-A'
  88   0.0000       0.168035         4.5725   71-A'
  89   0.0000       0.177893         4.8407   72-A'
  90   0.0000       0.196880         5.3574   73-A'
  91   0.0000       0.197269         5.3680   19-A"
  92   0.0000       0.198617         5.4046   74-A'

                 SPIN DOWN ORBITALS
  NO   OCC          E(Eh)            E(eV)    Irrep
   0   1.0000    -318.184168     -8658.2314    1-A'
   1   1.0000     -88.018130     -2395.0951    2-A'
   2   1.0000     -88.016422     -2395.0486    3-A'
   3   1.0000     -88.015539     -2395.0246    4-A'
   4   1.0000     -88.015347     -2395.0194    5-A'
   5   1.0000     -38.013731     -1034.4062    6-A'
   6   1.0000     -33.517588      -912.0599    7-A'
   7   1.0000     -33.516769      -912.0377    8-A'
   8   1.0000     -33.513754      -911.9556    1-A"
   9   1.0000      -9.860584      -268.3201    9-A'
  10   1.0000      -9.842304      -267.8227   10-A'
  11   1.0000      -9.839379      -267.7431   11-A'
  12   1.0000      -9.837371      -267.6885   12-A'
  13   1.0000      -9.835896      -267.6483   13-A'
  14   1.0000      -9.835142      -267.6278   14-A'
  15   1.0000      -9.834042      -267.5979   15-A'
  16   1.0000      -9.825880      -267.3758   16-A'
  17   1.0000      -9.811614      -266.9876   17-A'
  18   1.0000      -9.808598      -266.9055   18-A'
  19   1.0000      -9.805624      -266.8246   19-A'
  20   1.0000      -9.802581      -266.7418   20-A'
  21   1.0000      -7.587104      -206.4556   21-A'
  22   1.0000      -7.585435      -206.4102   22-A'
  23   1.0000      -7.584527      -206.3855   23-A'
  24   1.0000      -7.584374      -206.3813   24-A'
  25   1.0000      -5.510154      -149.9389   25-A'
  26   1.0000      -5.508440      -149.8923   26-A'
  27   1.0000      -5.507621      -149.8700   27-A'
  28   1.0000      -5.507402      -149.8640   28-A'
  29   1.0000      -5.503448      -149.7564   29-A'
  30   1.0000      -5.503147      -149.7482    2-A"
  31   1.0000      -5.501824      -149.7122   30-A'
  32   1.0000      -5.501437      -149.7017    3-A"
  33   1.0000      -5.500930      -149.6879   31-A'
  34   1.0000      -5.500794      -149.6842   32-A'
  35   1.0000      -5.500435      -149.6745    4-A"
  36   1.0000      -5.500323      -149.6714    5-A"
  37   1.0000      -3.993494      -108.6685   33-A'
  38   1.0000      -2.507937       -68.2444    6-A"
  39   1.0000      -2.506647       -68.2093   34-A'
  40   1.0000      -2.505053       -68.1659   35-A'
  41   1.0000      -0.597734       -16.2652   36-A'
  42   1.0000      -0.592220       -16.1151   37-A'
  43   1.0000      -0.522561       -14.2196   38-A'
  44   1.0000      -0.508128       -13.8269   39-A'
  45   1.0000      -0.495437       -13.4815   40-A'
  46   1.0000      -0.491696       -13.3797   41-A'
  47   1.0000      -0.423015       -11.5108   42-A'
  48   1.0000      -0.410145       -11.1606   43-A'
  49   1.0000      -0.386587       -10.5196   44-A'
  50   1.0000      -0.381959       -10.3936   45-A'
  51   1.0000      -0.330857        -9.0031   46-A'
  52   1.0000      -0.323568        -8.8047   47-A'
  53   1.0000      -0.319592        -8.6965   48-A'
  54   1.0000      -0.304497        -8.2858   49-A'
  55   1.0000      -0.240835        -6.5535   50-A'
  56   1.0000      -0.234073        -6.3695   51-A'
  57   1.0000      -0.194193        -5.2843   52-A'
  58   1.0000      -0.191166        -5.2019   53-A'
  59   1.0000      -0.173578        -4.7233   54-A'
  60   1.0000      -0.171811        -4.6752   55-A'
  61   1.0000      -0.157466        -4.2849   56-A'
  62   1.0000      -0.151151        -4.1130   57-A'
  63   1.0000      -0.121170        -3.2972    7-A"
  64   1.0000      -0.120785        -3.2867   58-A'
  65   1.0000      -0.119097        -3.2408    8-A"
  66   1.0000      -0.105001        -2.8572   59-A'
  67   1.0000      -0.084740        -2.3059   60-A'
  68   1.0000      -0.069304        -1.8859   61-A'
  69   1.0000      -0.061945        -1.6856   62-A'
  70   1.0000      -0.052851        -1.4381   63-A'
  71   1.0000      -0.040670        -1.1067    9-A"
  72   1.0000      -0.038984        -1.0608   10-A"
  73   1.0000      -0.026473        -0.7204   11-A"
  74   1.0000      -0.025268        -0.6876   64-A'
  75   1.0000      -0.021642        -0.5889   12-A"
  76   1.0000      -0.005435        -0.1479   65-A'
  77   1.0000       0.003744         0.1019   13-A"
  78   1.0000       0.007191         0.1957   66-A'
  79   1.0000       0.010638         0.2895   14-A"
  80   1.0000       0.022816         0.6208   67-A'
  81   1.0000       0.031262         0.8507   68-A'
  82   1.0000       0.040239         1.0949   69-A'
  83   1.0000       0.049918         1.3583   15-A"
  84   1.0000       0.054992         1.4964   16-A"
  85   1.0000       0.061598         1.6762   17-A"
  86   1.0000       0.088935         2.4200   18-A"
  87   0.0000       0.134817         3.6686   70-A'
  88   0.0000       0.169435         4.6106   71-A'
  89   0.0000       0.179496         4.8843   72-A'
  90   0.0000       0.197309         5.3690   19-A"
  91   0.0000       0.198100         5.3906   73-A'

MULLIKEN ATOMIC CHARGES AND SPIN POPULATIONS
--------------------------------------------
   0 Cu:    0.141975    0.375673
   1 S :   -0.415482    0.162906
   2 C :    0.027259   -0.007281
   3 S :   -0.423551    0.163929
   4 C :    0.014984   -0.007606
   5 S :   -0.424178    0.157685
   6 C :    0.003626   -0.007151
   7 S :   -0.421266    0.163452
   8 C :    0.028125   -0.007381
   9 C :   -0.089382   -0.001274
  10 C :   -0.131087   -0.002059
  11 C :   -0.122836   -0.001280
  12 H :    0.162677    0.002566
  13 C :   -0.296413   -0.000556
  14 H :   -0.006292    0.001611
  15 H :   -0.104504    0.002230
  16 H :    0.323763    0.000427
  17 C :   -0.088183   -0.000829
  18 C :   -0.232993   -0.002457
  19 C :   -0.938441   -0.000296
  20 H :   -0.056153    0.001194
  21 C :   -0.157915   -0.000946
  22 H :    0.323223    0.003017
  23 H :    1.055104   -0.000037
  24 H :   -0.172062    0.004462
Sum of atomic charges         :   -2.0000000

LOEWDIN ATOMIC CHARGES AND SPIN POPULATIONS
-------------------------------------------
   0 Cu:   -0.892031    0.441707
   1 S :   -0.000543    0.123460
   2 C :   -0.055777    0.005312
   3 S :    0.017165    0.125390
   4 C :   -0.025694    0.005186
   5 S :    0.025332    0.121428
   6 C :   -0.006373    0.005029
   7 S :    0.004954    0.123906
   8 C :   -0.047360    0.005199
   9 C :    0.305336    0.003744
  10 C :    0.328229    0.003948
  11 C :    0.282497   -0.000095
  12 H :   -0.534144    0.006185
  13 C :    0.403813   -0.000119
  14 H :   -0.371368    0.006316
  15 H :   -0.268372    0.000894
  16 H :   -0.642994   -0.000122
  17 C :    0.326622    0.003677
  18 C :    0.381820    0.003817
  19 C :    0.602224   -0.000097
  20 H :   -0.291170    0.006347
  21 C :    0.312803    0.000394
  22 H :   -0.662291    0.005758
  23 H :   -1.024330   -0.000303
  24 H :   -0.168350    0.003037

  Mayer bond orders larger than 0.100000
B(  0-Cu,  1-S ) :   0.7041 B(  0-Cu,  3-S ) :   0.7014 B(  0-Cu,  5-S ) :   0.6952
B(  0-Cu,  7-S ) :   0.7043 B(  1-S ,  2-C ) :   1.1796 B(  2-C ,  6-C ) :   1.2424
B(  2-C , 17-C ) :   1.3288 B(  3-S ,  4-C ) :   1.1892 B(  4-C ,  8-C ) :   1.2441
B(  4-C , 10-C ) :   1.3208 B(  5-S ,  6-C ) :   1.1959 B(  6-C , 18-C ) :   1.3342
B(  7-S ,  8-C ) :   1.1812 B(  8-C ,  9-C ) :   1.3203 B(  9-C , 13-C ) :   1.3926
B(  9-C , 14-H ) :   0.9982 B( 10-C , 11-C ) :   1.3766 B( 10-C , 12-H ) :   0.9115
B( 11-C , 13-C ) :   1.3774 B( 11-C , 15-H ) :   1.0102 B( 13-C , 16-H ) :   0.7704
B( 17-C , 19-C ) :   1.4604 B( 17-C , 20-H ) :   0.9991 B( 18-C , 21-C ) :   1.4200
B( 18-C , 22-H ) :   0.7777 B( 19-C , 21-C ) :   1.4676 B( 19-C , 23-H ) :  -0.4445
B( 21-C , 24-H ) :   0.9569

FINAL SINGLE POINT ENERGY     -3686.518651913473

DIPOLE MOMENT
-------------
                                X             Y             Z
Electronic contribution:      0.08196       0.30688      -0.00000
Nuclear contribution   :     -0.03827      -0.00302       0.00000
                        -----------------------------------------
Total Dipole Moment    :      0.04370       0.30386      -0.00000
                        -----------------------------------------
Magnitude (a.u.)       :      0.30699
Magnitude (Debye)      :      0.78030

Rotational constants in cm-1:     0.033412     0.004804     0.004200
Rotational constants in MHz :  1001.678064   144.006518   125.905657

                             ****ORCA TERMINATED NORMALLY****
TOTAL RUN TIME: 0 days 6 hours 3 minutes 21 seconds 534 msec
