                         Program Version 5.0.4 -  RELEASE  -
|  1> ! RIJCOSX nofrozencore ReducedPop printbasis
|  2> ! M06L ano-rcc-dzp autoaux
|  3>
|  4> %maxcore 5000
|  5> %basis
|  6> PCDTrimBas overlap
|  7> PCDTrimAuxJ Coulomb
|  8> PCDTrimAuxJK Coulomb
|  9> PCDTrimAuxC Coulomb
| 10> PCDThresh -1
| 11> end
| 12>
| 13> %basis
| 14> newgto Cu "ano-rcc-tzp" end
| 15> newgto S "ano-rcc-tzp" end
| 16> end
| 17>
| 18> %pal
| 19> nprocs 8
| 20> end
| 21>
| 22> % sym SymThresh 1e-2 end
| 23> * xyz -2 2
| 24> Cu 3.2505873086347477e-05 -0.00016038662217215125 -6.20362768313982e-05
| 25> S 0.9919357139017541 2.0890500097559395 -0.1462963067918252
| 26> C -0.03797212448361415 3.1449559437796237 0.8122667866516633
| 27> S 1.638223587721933 -0.9452600684336827 -1.341060662719337
| 28> C 1.1882424347078506 -2.602409674998612 -1.4521590840349348
| 29> S -1.6395008720561903 0.9402592078284502 1.3406710180908692
| 30> C -1.1984944410143012 2.6384808969945297 1.4680944557411006
| 31> S -0.9889111303945508 -2.09226461359912 0.14345281215680958
| 32> C 0.032435670267319576 -3.1054374489957826 -0.798648725198931
| 33> C -0.2684463604039918 -4.489560220329779 -0.9419878904637119
| 34> C 1.977636466119824 -3.5087879738522694 -2.211146928590631
| 35> C 1.644234089024922 -4.879493746804932 -2.329202279666787
| 36> H 2.835258841946274 -3.0029631878464156 -2.66289847083695
| 37> C 0.5445482686785824 -5.359899668823727 -1.70787452819944
| 38> H -1.1778275766200381 -4.753495114674183 -0.39483141187478715
| 39> H 2.0913817910406634 -5.774946060157663 -2.8546879689698184
| 40> H 0.5271076854264009 -6.460309685031104 -1.971365596921518
| 41> C 0.26460674416321806 4.492491835104375 0.9453101583543191
| 42> C -1.9760587432814813 3.5142023113835155 2.2114374191121877
| 43> C -0.5098244496757077 5.348853214965338 1.6816979165774206
| 44> H 1.1317337803907845 4.9523014135753325 0.475639826216385
| 45> C -1.668813941525402 4.8428787501588815 2.3366172486258856
| 46> H -2.874856391135014 3.2025973655729607 2.739533689755485
| 47> H -0.053145743671988814 6.35978384075273 1.6266384507892366
| 48> H -2.443068327139155 5.316222520754999 2.9770797447962076
| 49> *
| 50>
| 51> % eprnmr
| 52> gtensor true
| 53> Nuclei = all H {aiso,adip,aorb,fgrad,rho}
| 54> Nuclei = all Cu {aiso,adip,aorb,fgrad,rho}
| 55> end
| 56>
| 57>                          ****END OF INPUT****

CARTESIAN COORDINATES (ANGSTROEM)
---------------------------------
  Cu     0.000000    0.000000   -0.000175
  S      0.000000    1.616729    1.660014
  C      0.000000    0.712993    3.169268
  S      0.000000    1.614097   -1.664514
  C      0.000000    0.709929   -3.127927
  S      0.000000   -1.616729    1.660014
  C      0.000000   -0.712993    3.169268
  S      0.000000   -1.614097   -1.664514
  C      0.000000   -0.709929   -3.127927
  C      0.000000   -1.379997   -4.382841
  C      0.000000    1.379997   -4.382841
  C      0.000000    0.675675   -5.611015
  H      0.000000    2.465428   -4.250278
  C      0.000000   -0.675675   -5.611015
  H      0.000000   -2.465428   -4.250278
  H      0.000000    0.961370   -6.705385
  H      0.000000   -0.961370   -6.705385
  C      0.000000    1.376655    4.387518
  C      0.000000   -1.376655    4.387518
  C      0.000000    0.712072    5.584906
  H      0.000000    2.461679    4.468730
  C      0.000000   -0.712072    5.584906
  H      0.000000   -2.461679    4.468730
  H      0.000000    1.468370    6.398328
  H      0.000000   -1.468370    6.398328

 Total Charge           Charge          ....   -2
 Multiplicity           Mult            ....    2
 Number of Electrons    NEL             ....  175
 Basis Dimension        Dim             ....  475

ORBITAL ENERGIES
----------------
                 SPIN UP ORBITALS
  NO   OCC          E(Eh)            E(eV)    Irrep
   0   1.0000    -318.182942     -8658.1980    1-A1
   1   1.0000     -88.016241     -2395.0437    1-B2
   2   1.0000     -88.016231     -2395.0434    2-A1
   3   1.0000     -88.015054     -2395.0114    2-B2
   4   1.0000     -88.015042     -2395.0111    3-A1
   5   1.0000     -38.028138     -1034.7982    4-A1
   6   1.0000     -33.531281      -912.4325    3-B2
   7   1.0000     -33.530442      -912.4097    5-A1
   8   1.0000     -33.516635      -912.0340    1-B1
   9   1.0000      -9.834256      -267.6037    6-A1
  10   1.0000      -9.833935      -267.5950    4-B2
  11   1.0000      -9.833519      -267.5837    7-A1
  12   1.0000      -9.833176      -267.5743    5-B2
  13   1.0000      -9.831626      -267.5321    8-A1
  14   1.0000      -9.831303      -267.5234    6-B2
  15   1.0000      -9.825509      -267.3657    9-A1
  16   1.0000      -9.824890      -267.3488    7-B2
  17   1.0000      -9.820927      -267.2410    8-B2
  18   1.0000      -9.820923      -267.2409   10-A1
  19   1.0000      -9.816586      -267.1229    9-B2
  20   1.0000      -9.816581      -267.1228   11-A1
  21   1.0000      -7.584546      -206.3860   10-B2
  22   1.0000      -7.584537      -206.3858   12-A1
  23   1.0000      -7.584305      -206.3794   11-B2
  24   1.0000      -7.584293      -206.3791   13-A1
  25   1.0000      -5.507843      -149.8760   12-B2
  26   1.0000      -5.507842      -149.8760   14-A1
  27   1.0000      -5.507380      -149.8634   13-B2
  28   1.0000      -5.507379      -149.8634   15-A1
  29   1.0000      -5.502477      -149.7300   14-B2
  30   1.0000      -5.502476      -149.7300   16-A1
  31   1.0000      -5.502169      -149.7216   15-B2
  32   1.0000      -5.502169      -149.7216   17-A1
  33   1.0000      -5.500601      -149.6790    1-A2
  34   1.0000      -5.500600      -149.6789    2-B1
  35   1.0000      -5.500392      -149.6733    2-A2
  36   1.0000      -5.500391      -149.6733    3-B1
  37   1.0000      -4.025745      -109.5461   18-A1
  38   1.0000      -2.547189       -69.3125   16-B2
  39   1.0000      -2.545670       -69.2712   19-A1
  40   1.0000      -2.518192       -68.5235    4-B1
  41   1.0000      -0.595225       -16.1969   20-A1
  42   1.0000      -0.587441       -15.9851   21-A1
  43   1.0000      -0.513194       -13.9647   22-A1
  44   1.0000      -0.501598       -13.6492   23-A1
  45   1.0000      -0.499653       -13.5963   17-B2
  46   1.0000      -0.483707       -13.1623   18-B2
  47   1.0000      -0.413867       -11.2619   19-B2
  48   1.0000      -0.403241       -10.9728   20-B2
  49   1.0000      -0.395493       -10.7619   24-A1
  50   1.0000      -0.378981       -10.3126   25-A1
  51   1.0000      -0.324151        -8.8206   26-A1
  52   1.0000      -0.320797        -8.7293   27-A1
  53   1.0000      -0.305221        -8.3055   21-B2
  54   1.0000      -0.282676        -7.6920   22-B2
  55   1.0000      -0.239470        -6.5163   28-A1
  56   1.0000      -0.230211        -6.2644   29-A1
  57   1.0000      -0.190825        -5.1926   30-A1
  58   1.0000      -0.180163        -4.9025   31-A1
  59   1.0000      -0.178584        -4.8595   23-B2
  60   1.0000      -0.166677        -4.5355   24-B2
  61   1.0000      -0.142998        -3.8912   25-B2
  62   1.0000      -0.137284        -3.7357   26-B2
  63   1.0000      -0.131034        -3.5656   32-A1
  64   1.0000      -0.121282        -3.3002    5-B1
  65   1.0000      -0.115509        -3.1432    6-B1
  66   1.0000      -0.113162        -3.0793   33-A1
  67   1.0000      -0.083989        -2.2855   34-A1
  68   1.0000      -0.069527        -1.8919   27-B2
  69   1.0000      -0.064667        -1.7597   28-B2
  70   1.0000      -0.062156        -1.6914   35-A1
  71   1.0000      -0.043268        -1.1774    7-B1
  72   1.0000      -0.037340        -1.0161    8-B1
  73   1.0000      -0.032465        -0.8834   29-B2
  74   1.0000      -0.030355        -0.8260   36-A1
  75   1.0000      -0.029120        -0.7924    3-A2
  76   1.0000      -0.020204        -0.5498    4-A2
  77   1.0000      -0.003318        -0.0903    5-A2
  78   1.0000      -0.002122        -0.0577   37-A1
  79   1.0000      -0.000210        -0.0057    9-B1
  80   1.0000       0.016914         0.4603   38-A1
  81   1.0000       0.017764         0.4834   39-A1
  82   1.0000       0.033218         0.9039   30-B2
  83   1.0000       0.048087         1.3085    6-A2
  84   1.0000       0.052692         1.4338    7-A2
  85   1.0000       0.061264         1.6671   10-B1
  86   1.0000       0.086264         2.3474   11-B1
  87   1.0000       0.103484         2.8160   31-B2
  88   0.0000       0.179248         4.8776   40-A1
  89   0.0000       0.181034         4.9262   41-A1
  90   0.0000       0.192587         5.2406   32-B2
  91   0.0000       0.194980         5.3057   12-B1
  92   0.0000       0.201772         5.4905   33-B2

                 SPIN DOWN ORBITALS
  NO   OCC          E(Eh)            E(eV)    Irrep
   0   1.0000    -318.182768     -8658.1933    1-A1
   1   1.0000     -88.015155     -2395.0141    1-B2
   2   1.0000     -88.015146     -2395.0139    2-A1
   3   1.0000     -88.014005     -2394.9828    2-B2
   4   1.0000     -88.013992     -2394.9825    3-A1
   5   1.0000     -38.012247     -1034.3658    4-A1
   6   1.0000     -33.516100      -912.0194    3-B2
   7   1.0000     -33.515293      -911.9975    5-A1
   8   1.0000     -33.512305      -911.9162    1-B1
   9   1.0000      -9.834374      -267.6069    6-A1
  10   1.0000      -9.834052      -267.5982    4-B2
  11   1.0000      -9.833629      -267.5867    7-A1
  12   1.0000      -9.833286      -267.5773    5-B2
  13   1.0000      -9.831606      -267.5316    8-A1
  14   1.0000      -9.831283      -267.5228    6-B2
  15   1.0000      -9.825482      -267.3650    9-A1
  16   1.0000      -9.824863      -267.3481    7-B2
  17   1.0000      -9.820862      -267.2392    8-B2
  18   1.0000      -9.820858      -267.2391   10-A1
  19   1.0000      -9.816532      -267.1214    9-B2
  20   1.0000      -9.816527      -267.1213   11-A1
  21   1.0000      -7.583801      -206.3657   10-B2
  22   1.0000      -7.583793      -206.3655   12-A1
  23   1.0000      -7.583585      -206.3598   11-B2
  24   1.0000      -7.583574      -206.3595   13-A1
  25   1.0000      -5.506902      -149.8504   12-B2
  26   1.0000      -5.506902      -149.8504   14-A1
  27   1.0000      -5.506462      -149.8385   13-B2
  28   1.0000      -5.506461      -149.8384   15-A1
  29   1.0000      -5.500192      -149.6678   14-B2
  30   1.0000      -5.500192      -149.6678   16-A1
  31   1.0000      -5.499970      -149.6618   15-B2
  32   1.0000      -5.499969      -149.6618   17-A1
  33   1.0000      -5.499773      -149.6564    1-A2
  34   1.0000      -5.499773      -149.6564    2-B1
  35   1.0000      -5.499592      -149.6515    2-A2
  36   1.0000      -5.499591      -149.6515    3-B1
  37   1.0000      -3.991952      -108.6265   18-A1
  38   1.0000      -2.506471       -68.2045    4-B1
  39   1.0000      -2.505055       -68.1660   16-B2
  40   1.0000      -2.503512       -68.1240   19-A1
  41   1.0000      -0.594903       -16.1881   20-A1
  42   1.0000      -0.587043       -15.9743   21-A1
  43   1.0000      -0.511979       -13.9317   22-A1
  44   1.0000      -0.500263       -13.6129   23-A1
  45   1.0000      -0.498905       -13.5759   17-B2
  46   1.0000      -0.482219       -13.1218   18-B2
  47   1.0000      -0.409774       -11.1505   19-B2
  48   1.0000      -0.399425       -10.8689   20-B2
  49   1.0000      -0.392681       -10.6854   24-A1
  50   1.0000      -0.375456       -10.2167   25-A1
  51   1.0000      -0.323179        -8.7941   26-A1
  52   1.0000      -0.319024        -8.6811   27-A1
  53   1.0000      -0.302892        -8.2421   21-B2
  54   1.0000      -0.280881        -7.6432   22-B2
  55   1.0000      -0.238798        -6.4980   28-A1
  56   1.0000      -0.229473        -6.2443   29-A1
  57   1.0000      -0.189868        -5.1666   30-A1
  58   1.0000      -0.179280        -4.8785   31-A1
  59   1.0000      -0.178179        -4.8485   23-B2
  60   1.0000      -0.165840        -4.5127   24-B2
  61   1.0000      -0.141875        -3.8606   25-B2
  62   1.0000      -0.135830        -3.6961   26-B2
  63   1.0000      -0.129812        -3.5324   32-A1
  64   1.0000      -0.121149        -3.2966    5-B1
  65   1.0000      -0.115269        -3.1366    6-B1
  66   1.0000      -0.112103        -3.0505   33-A1
  67   1.0000      -0.082616        -2.2481   34-A1
  68   1.0000      -0.067632        -1.8404   27-B2
  69   1.0000      -0.060522        -1.6469   35-A1
  70   1.0000      -0.050475        -1.3735   28-B2
  71   1.0000      -0.041878        -1.1396    7-B1
  72   1.0000      -0.035865        -0.9759    8-B1
  73   1.0000      -0.026961        -0.7336    3-A2
  74   1.0000      -0.023509        -0.6397   36-A1
  75   1.0000      -0.017965        -0.4888    4-A2
  76   1.0000      -0.004039        -0.1099   29-B2
  77   1.0000       0.006026         0.1640    5-A2
  78   1.0000       0.008743         0.2379   37-A1
  79   1.0000       0.012101         0.3293    9-B1
  80   1.0000       0.024473         0.6659   38-A1
  81   1.0000       0.032741         0.8909   39-A1
  82   1.0000       0.041528         1.1300   30-B2
  83   1.0000       0.051657         1.4057    6-A2
  84   1.0000       0.057429         1.5627    7-A2
  85   1.0000       0.063105         1.7172   10-B1
  86   1.0000       0.090410         2.4602   11-B1
  87   0.0000       0.136561         3.7160   31-B2
  88   0.0000       0.179946         4.8966   40-A1
  89   0.0000       0.182427         4.9641   41-A1
  90   0.0000       0.194941         5.3046   32-B2
  91   0.0000       0.195086         5.3086   12-B1

MULLIKEN ATOMIC CHARGES AND SPIN POPULATIONS
--------------------------------------------
   0 Cu:    0.138989    0.375953
   1 S :   -0.429409    0.165949
   2 C :   -0.000357   -0.008206
   3 S :   -0.412283    0.159255
   4 C :    0.055922   -0.006856
   5 S :   -0.429409    0.165949
   6 C :   -0.000357   -0.008206
   7 S :   -0.412283    0.159255
   8 C :    0.055922   -0.006856
   9 C :   -0.175543   -0.001791
  10 C :   -0.175543   -0.001791
  11 C :   -0.076884   -0.000415
  12 H :    0.073087    0.002366
  13 C :   -0.076884   -0.000415
  14 H :    0.073087    0.002366
  15 H :   -0.000987    0.000983
  16 H :   -0.000987    0.000983
  17 C :   -0.011436   -0.001059
  18 C :   -0.011436   -0.001059
  19 C :   -0.166329   -0.001290
  20 H :    0.056009    0.001606
  21 C :   -0.166329   -0.001290
  22 H :    0.056009    0.001606
  23 H :    0.018716    0.001480
  24 H :    0.018716    0.001480
Sum of atomic charges         :   -2.0000000

LOEWDIN ATOMIC CHARGES AND SPIN POPULATIONS
-------------------------------------------
   0 Cu:   -0.890257    0.442689
   1 S :    0.004294    0.127159
   2 C :   -0.033591    0.004849
   3 S :    0.021258    0.120043
   4 C :   -0.044330    0.005514
   5 S :    0.004294    0.127159
   6 C :   -0.033591    0.004849
   7 S :    0.021258    0.120043
   8 C :   -0.044330    0.005514
   9 C :    0.315531    0.003774
  10 C :    0.315531    0.003774
  11 C :    0.288060    0.000021
  12 H :   -0.469391    0.007397
  13 C :    0.288060    0.000021
  14 H :   -0.469391    0.007397
  15 H :   -0.398095    0.000313
  16 H :   -0.398095    0.000313
  17 C :    0.289567    0.003972
  18 C :    0.289567    0.003972
  19 C :    0.311568   -0.000202
  20 H :   -0.431168    0.005590
  21 C :    0.311568   -0.000202
  22 H :   -0.431168    0.005590
  23 H :   -0.408576    0.000224
  24 H :   -0.408576    0.000224

  Mayer bond orders larger than 0.100000
B(  0-Cu,  1-S ) :   0.7051 B(  0-Cu,  3-S ) :   0.6973 B(  0-Cu,  5-S ) :   0.7051
B(  0-Cu,  7-S ) :   0.6973 B(  1-S ,  2-C ) :   1.1747 B(  2-C ,  6-C ) :   1.2605
B(  2-C , 17-C ) :   1.3057 B(  3-S ,  4-C ) :   1.2005 B(  4-C ,  8-C ) :   1.2223
B(  4-C , 10-C ) :   1.3341 B(  5-S ,  6-C ) :   1.1747 B(  6-C , 18-C ) :   1.3057
B(  7-S ,  8-C ) :   1.2005 B(  8-C ,  9-C ) :   1.3341 B(  9-C , 13-C ) :   1.3459
B(  9-C , 14-H ) :   0.9661 B( 10-C , 11-C ) :   1.3459 B( 10-C , 12-H ) :   0.9661
B( 11-C , 13-C ) :   1.3357 B( 11-C , 15-H ) :   0.9914 B( 13-C , 16-H ) :   0.9914
B( 17-C , 19-C ) :   1.3686 B( 17-C , 20-H ) :   0.9713 B( 18-C , 21-C ) :   1.3686
B( 18-C , 22-H ) :   0.9713 B( 19-C , 21-C ) :   1.3300 B( 19-C , 23-H ) :   0.9918
B( 21-C , 24-H ) :   0.9918

FINAL SINGLE POINT ENERGY     -3686.884575853168

DIPOLE MOMENT
-------------
                                X             Y             Z
Electronic contribution:      0.00000      -0.00000       0.43423
Nuclear contribution   :      0.00000      -0.00000      -0.16508
                        -----------------------------------------
Total Dipole Moment    :      0.00000      -0.00000       0.26914
                        -----------------------------------------
Magnitude (a.u.)       :      0.26914
Magnitude (Debye)      :      0.68411

Rotational constants in cm-1:     0.033443     0.004803     0.004200
Rotational constants in MHz :  1002.597770   143.984523   125.903359

                             ****ORCA TERMINATED NORMALLY****
TOTAL RUN TIME: 0 days 6 hours 17 minutes 21 seconds 197 msec
