                         Program Version 5.0.4 -  RELEASE  -
|  1> ! RIJCOSX nofrozencore ReducedPop printbasis
|  2> ! M06L ano-rcc-dzp autoaux
|  3>
|  4> %maxcore 5000
|  5> %basis
|  6> PCDTrimBas overlap
|  7> PCDTrimAuxJ Coulomb
|  8> PCDTrimAuxJK Coulomb
|  9> PCDTrimAuxC Coulomb
| 10> PCDThresh -1
| 11> end
| 12>
| 13> %basis
| 14> newgto Cu "ano-rcc-tzp" end
| 15> newgto S "ano-rcc-tzp" end
| 16> end
| 17>
| 18> %pal
| 19> nprocs 12
| 20> end
| 21>
| 22> % sym SymThresh 1e-2 end
| 23> * xyz -2 2
| 24> Cu -1.7316032878379176e-05 1.2709794454948937e-06 9.356260823855904e-06
| 25> S 1.6695609849113946 -0.15293154559995437 -1.5976771621923822
| 26> C 0.8461867232600615 -0.18125787872077193 -3.18454780189779
| 27> S 1.5554588149717836 -0.002310949088439138 1.7200023014295311
| 28> C 0.5843673520685688 0.10773202913407205 3.1320628655521947
| 29> S -1.5556968648537293 0.0022941624580177485 -1.7206578778650021
| 30> C -0.5769741474919138 -0.10706128509210944 -3.1082826956932994
| 31> S -1.6698965919983935 0.15297937663500402 1.5983895006479225
| 32> C -0.8355423430532865 0.17971457084488102 3.1613535949526534
| 33> C -1.4980996470541468 0.26231029223020486 4.296806493920263
| 34> C 1.251672870518794 0.1323680810491582 4.456576323985106
| 35> C 0.4673723801023224 0.2233200801548473 5.644543932977944
| 36> H 2.3438183741630376 0.07486147215622627 4.385059096575932
| 37> C -0.9220812710442892 0.2874927711204151 5.529779360075034
| 38> H -2.5804358046605906 0.31954208896419284 4.373213841428984
| 39> H 1.2110416030152498 0.2227605823624301 6.479365553691796
| 40> H -1.2872629693314377 0.35160235677687074 6.5810278155659665
| 41> C 1.4810449206039353 -0.2608671274622188 -4.283211045300931
| 42> C -1.267257093591506 -0.13238172634013765 -4.474651448162439
| 43> C 0.9394480528016735 -0.28749452106674034 -5.510024888547578
| 44> H 2.5623526918905264 -0.320470228004928 -4.41507010612695
| 45> C -0.4471387172927091 -0.2250617409966353 -5.661348681944205
| 46> H -2.364669076200058 -0.071505850753828 -4.332013799795094
| 47> H 1.1835635855072149 -0.3488926021800039 -6.637196833516267
| 48> H -1.3231109891798942 -0.21482722766882817 -6.42550550177031
| 49> *
| 50>
| 51> % eprnmr
| 52> gtensor true
| 53> Nuclei = all H {aiso,adip,aorb,fgrad,rho}
| 54> Nuclei = all Cu {aiso,adip,aorb,fgrad,rho}
| 55> end
| 56>
| 57>                          ****END OF INPUT****

CARTESIAN COORDINATES (ANGSTROEM)
---------------------------------
  Cu     0.000009   -0.000017    0.000000
  S     -1.601014    1.673364    0.000000
  C     -3.188503    0.850694    0.000000
  S      1.719952    1.555517    0.000000
  C      3.134413    0.581689    0.000000
  S     -1.720608   -1.555754    0.000000
  C     -3.110619   -0.574312    0.000000
  S      1.601728   -1.673701    0.000000
  C      3.165275   -0.840011    0.000000
  C      4.302530   -1.504623    0.000000
  C      4.459464    1.248382    0.000000
  C      5.649417    0.461819    0.000000
  H      4.386692    2.341957    0.000000
  C      5.536052   -0.929230    0.000000
  H      4.380186   -2.588382    0.000000
  H      6.484226    1.205503    0.000000
  H      6.588700   -1.296006    0.000000
  C     -4.288903    1.487532    0.000000
  C     -4.477540   -1.263966    0.000000
  C     -5.516298    0.946597    0.000000
  H     -4.422063    2.570322    0.000000
  C     -5.666259   -0.441542    0.000000
  H     -4.333574   -2.362891    0.000000
  H     -6.644810    1.192239    0.000000
  H     -6.430193   -1.317769    0.000000

 Total Charge           Charge          ....   -2
 Multiplicity           Mult            ....    2
 Number of Electrons    NEL             ....  175
 Basis Dimension        Dim             ....  475

ORBITAL ENERGIES
----------------
                 SPIN UP ORBITALS
  NO   OCC          E(Eh)            E(eV)    Irrep
   0   1.0000    -318.182973     -8658.1989    1-A'
   1   1.0000     -88.022613     -2395.2171    2-A'
   2   1.0000     -88.019726     -2395.1385    3-A'
   3   1.0000     -88.012371     -2394.9384    4-A'
   4   1.0000     -88.010608     -2394.8904    5-A'
   5   1.0000     -38.028123     -1034.7978    6-A'
   6   1.0000     -33.531249      -912.4317    7-A'
   7   1.0000     -33.530419      -912.4091    8-A'
   8   1.0000     -33.516662      -912.0347    1-A"
   9   1.0000      -9.841731      -267.8071    9-A'
  10   1.0000      -9.838796      -267.7273   10-A'
  11   1.0000      -9.835878      -267.6478   11-A'
  12   1.0000      -9.831987      -267.5420   12-A'
  13   1.0000      -9.829847      -267.4837   13-A'
  14   1.0000      -9.828409      -267.4446   14-A'
  15   1.0000      -9.827753      -267.4268   15-A'
  16   1.0000      -9.825427      -267.3635   16-A'
  17   1.0000      -9.824222      -267.3307   17-A'
  18   1.0000      -9.821580      -267.2588   18-A'
  19   1.0000      -9.814834      -267.0752   19-A'
  20   1.0000      -9.812642      -267.0156   20-A'
  21   1.0000      -7.591676      -206.5800   21-A'
  22   1.0000      -7.588613      -206.4967   22-A'
  23   1.0000      -7.580815      -206.2845   23-A'
  24   1.0000      -7.578878      -206.2318   24-A'
  25   1.0000      -5.514613      -150.0602   25-A'
  26   1.0000      -5.511659      -149.9799   26-A'
  27   1.0000      -5.509444      -149.9196   27-A'
  28   1.0000      -5.508073      -149.8823    2-A"
  29   1.0000      -5.506458      -149.8383   28-A'
  30   1.0000      -5.504874      -149.7952    3-A"
  31   1.0000      -5.504219      -149.7774   29-A'
  32   1.0000      -5.502388      -149.7276   30-A'
  33   1.0000      -5.498780      -149.6294   31-A'
  34   1.0000      -5.496885      -149.5778   32-A'
  35   1.0000      -5.496695      -149.5727    4-A"
  36   1.0000      -5.494661      -149.5173    5-A"
  37   1.0000      -4.025712      -109.5452   33-A'
  38   1.0000      -2.547114       -69.3105   34-A'
  39   1.0000      -2.545616       -69.2697   35-A'
  40   1.0000      -2.518227       -68.5244    6-A"
  41   1.0000      -0.598313       -16.2809   36-A'
  42   1.0000      -0.593917       -16.1613   37-A'
  43   1.0000      -0.507127       -13.7996   38-A'
  44   1.0000      -0.505620       -13.7586   39-A'
  45   1.0000      -0.491772       -13.3818   40-A'
  46   1.0000      -0.491279       -13.3684   41-A'
  47   1.0000      -0.412799       -11.2328   42-A'
  48   1.0000      -0.410011       -11.1570   43-A'
  49   1.0000      -0.387592       -10.5469   44-A'
  50   1.0000      -0.381773       -10.3886   45-A'
  51   1.0000      -0.326992        -8.8979   46-A'
  52   1.0000      -0.323617        -8.8061   47-A'
  53   1.0000      -0.298637        -8.1263   48-A'
  54   1.0000      -0.294845        -8.0231   49-A'
  55   1.0000      -0.230367        -6.2686   50-A'
  56   1.0000      -0.226163        -6.1542   51-A'
  57   1.0000      -0.219221        -5.9653   52-A'
  58   1.0000      -0.211351        -5.7511   53-A'
  59   1.0000      -0.163789        -4.4569   54-A'
  60   1.0000      -0.157438        -4.2841   55-A'
  61   1.0000      -0.138340        -3.7644   56-A'
  62   1.0000      -0.129294        -3.5183   57-A'
  63   1.0000      -0.125612        -3.4181   58-A'
  64   1.0000      -0.124128        -3.3777    7-A"
  65   1.0000      -0.120631        -3.2825    8-A"
  66   1.0000      -0.105697        -2.8762   59-A'
  67   1.0000      -0.078217        -2.1284   60-A'
  68   1.0000      -0.065773        -1.7898   61-A'
  69   1.0000      -0.060789        -1.6542   62-A'
  70   1.0000      -0.053085        -1.4445   63-A'
  71   1.0000      -0.041751        -1.1361    9-A"
  72   1.0000      -0.039733        -1.0812   64-A'
  73   1.0000      -0.039538        -1.0759   10-A"
  74   1.0000      -0.027622        -0.7516   11-A"
  75   1.0000      -0.021093        -0.5740   12-A"
  76   1.0000      -0.020782        -0.5655   65-A'
  77   1.0000      -0.005031        -0.1369   13-A"
  78   1.0000      -0.001142        -0.0311   66-A'
  79   1.0000       0.000477         0.0130   14-A"
  80   1.0000       0.017564         0.4779   67-A'
  81   1.0000       0.018907         0.5145   68-A'
  82   1.0000       0.034526         0.9395   69-A'
  83   1.0000       0.049197         1.3387   15-A"
  84   1.0000       0.051291         1.3957   16-A"
  85   1.0000       0.061296         1.6679   17-A"
  86   1.0000       0.085999         2.3402   18-A"
  87   1.0000       0.103707         2.8220   70-A'
  88   0.0000       0.180780         4.9193   71-A'
  89   0.0000       0.180967         4.9244   72-A'
  90   0.0000       0.195335         5.3153   19-A"
  91   0.0000       0.196006         5.3336   73-A'
  92   0.0000       0.196238         5.3399   74-A'

                 SPIN DOWN ORBITALS
  NO   OCC          E(Eh)            E(eV)    Irrep
   0   1.0000    -318.182799     -8658.1941    1-A'
   1   1.0000     -88.021555     -2395.1883    2-A'
   2   1.0000     -88.018654     -2395.1093    3-A'
   3   1.0000     -88.011302     -2394.9093    4-A'
   4   1.0000     -88.009534     -2394.8612    5-A'
   5   1.0000     -38.012294     -1034.3671    6-A'
   6   1.0000     -33.516129      -912.0202    7-A'
   7   1.0000     -33.515328      -911.9984    8-A'
   8   1.0000     -33.512349      -911.9174    1-A"
   9   1.0000      -9.841848      -267.8103    9-A'
  10   1.0000      -9.838914      -267.7305   10-A'
  11   1.0000      -9.835839      -267.6468   11-A'
  12   1.0000      -9.831972      -267.5415   12-A'
  13   1.0000      -9.829815      -267.4829   13-A'
  14   1.0000      -9.828518      -267.4476   14-A'
  15   1.0000      -9.827736      -267.4263   15-A'
  16   1.0000      -9.825534      -267.3664   16-A'
  17   1.0000      -9.824137      -267.3283   17-A'
  18   1.0000      -9.821504      -267.2567   18-A'
  19   1.0000      -9.814790      -267.0740   19-A'
  20   1.0000      -9.812603      -267.0145   20-A'
  21   1.0000      -7.590946      -206.5601   21-A'
  22   1.0000      -7.587875      -206.4766   22-A'
  23   1.0000      -7.580082      -206.2645   23-A'
  24   1.0000      -7.578144      -206.2118   24-A'
  25   1.0000      -5.513686      -150.0350   25-A'
  26   1.0000      -5.510724      -149.9544   26-A'
  27   1.0000      -5.507256      -149.8600    2-A"
  28   1.0000      -5.507223      -149.8592   27-A'
  29   1.0000      -5.504204      -149.7770   28-A'
  30   1.0000      -5.504051      -149.7728    3-A"
  31   1.0000      -5.503289      -149.7521   29-A'
  32   1.0000      -5.501456      -149.7022   30-A'
  33   1.0000      -5.496534      -149.5683   31-A'
  34   1.0000      -5.495885      -149.5506    4-A"
  35   1.0000      -5.494628      -149.5164   32-A'
  36   1.0000      -5.493851      -149.4953    5-A"
  37   1.0000      -3.992080      -108.6300   33-A'
  38   1.0000      -2.506550       -68.2067    6-A"
  39   1.0000      -2.505240       -68.1710   34-A'
  40   1.0000      -2.503593       -68.1262   35-A'
  41   1.0000      -0.597988       -16.2721   36-A'
  42   1.0000      -0.593570       -16.1519   37-A'
  43   1.0000      -0.505785       -13.7631   38-A'
  44   1.0000      -0.504366       -13.7245   39-A'
  45   1.0000      -0.490623       -13.3505   40-A'
  46   1.0000      -0.490192       -13.3388   41-A'
  47   1.0000      -0.409247       -11.1362   42-A'
  48   1.0000      -0.406286       -11.0556   43-A'
  49   1.0000      -0.384096       -10.4518   44-A'
  50   1.0000      -0.378473       -10.2988   45-A'
  51   1.0000      -0.325686        -8.8624   46-A'
  52   1.0000      -0.322021        -8.7626   47-A'
  53   1.0000      -0.296795        -8.0762   48-A'
  54   1.0000      -0.292556        -7.9609   49-A'
  55   1.0000      -0.229705        -6.2506   50-A'
  56   1.0000      -0.225484        -6.1357   51-A'
  57   1.0000      -0.218471        -5.9449   52-A'
  58   1.0000      -0.210601        -5.7308   53-A'
  59   1.0000      -0.163116        -4.4386   54-A'
  60   1.0000      -0.156770        -4.2659   55-A'
  61   1.0000      -0.137070        -3.7299   56-A'
  62   1.0000      -0.126794        -3.4502   57-A'
  63   1.0000      -0.123999        -3.3742    7-A"
  64   1.0000      -0.123717        -3.3665   58-A'
  65   1.0000      -0.120470        -3.2781    8-A"
  66   1.0000      -0.104666        -2.8481   59-A'
  67   1.0000      -0.077047        -2.0966   60-A'
  68   1.0000      -0.063444        -1.7264   61-A'
  69   1.0000      -0.053038        -1.4432   62-A'
  70   1.0000      -0.048572        -1.3217   63-A'
  71   1.0000      -0.039802        -1.0831    9-A"
  72   1.0000      -0.038400        -1.0449   10-A"
  73   1.0000      -0.024765        -0.6739   11-A"
  74   1.0000      -0.020323        -0.5530   12-A"
  75   1.0000      -0.018781        -0.5111   64-A'
  76   1.0000      -0.003771        -0.1026   65-A'
  77   1.0000       0.004993         0.1359   13-A"
  78   1.0000       0.009817         0.2671   66-A'
  79   1.0000       0.012548         0.3415   14-A"
  80   1.0000       0.025195         0.6856   67-A'
  81   1.0000       0.032924         0.8959   68-A'
  82   1.0000       0.042742         1.1631   69-A'
  83   1.0000       0.052023         1.4156   15-A"
  84   1.0000       0.056772         1.5448   16-A"
  85   1.0000       0.063108         1.7173   17-A"
  86   1.0000       0.090134         2.4527   18-A"
  87   0.0000       0.136526         3.7151   70-A'
  88   0.0000       0.181773         4.9463   71-A'
  89   0.0000       0.181931         4.9506   72-A'
  90   0.0000       0.195492         5.3196   19-A"
  91   0.0000       0.197642         5.3781   73-A'

MULLIKEN ATOMIC CHARGES AND SPIN POPULATIONS
--------------------------------------------
   0 Cu:    0.140349    0.374555
   1 S :   -0.476263    0.166069
   2 C :   -0.009578   -0.007834
   3 S :   -0.387033    0.162066
   4 C :    0.032427   -0.008175
   5 S :   -0.369123    0.158794
   6 C :    0.029365   -0.008355
   7 S :   -0.461669    0.164249
   8 C :    0.000119   -0.007511
   9 C :   -0.065981   -0.001067
  10 C :   -0.100910   -0.001361
  11 C :   -0.105189   -0.000408
  12 H :    0.072300    0.002534
  13 C :   -0.151303   -0.001164
  14 H :    0.053456    0.001411
  15 H :    0.025739    0.001593
  16 H :    0.019184    0.000830
  17 C :   -0.036955   -0.000643
  18 C :   -0.113503   -0.000898
  19 C :   -0.140719   -0.001327
  20 H :    0.043070    0.001225
  21 C :   -0.082884   -0.000143
  22 H :    0.077074    0.002767
  23 H :   -0.001654    0.000758
  24 H :    0.009681    0.002036
Sum of atomic charges         :   -2.0000000

LOEWDIN ATOMIC CHARGES AND SPIN POPULATIONS
-------------------------------------------
   0 Cu:   -0.892966    0.441121
   1 S :   -0.009215    0.126444
   2 C :   -0.058641    0.004846
   3 S :    0.025768    0.123645
   4 C :   -0.023675    0.005096
   5 S :    0.035080    0.121216
   6 C :   -0.013892    0.004928
   7 S :   -0.004620    0.125050
   8 C :   -0.053102    0.004934
   9 C :    0.267734    0.003634
  10 C :    0.331175    0.004304
  11 C :    0.308175    0.000313
  12 H :   -0.455673    0.006991
  13 C :    0.298010   -0.000433
  14 H :   -0.432708    0.005511
  15 H :   -0.405410    0.000450
  16 H :   -0.406632    0.000122
  17 C :    0.239433    0.003570
  18 C :    0.337710    0.004536
  19 C :    0.282543   -0.000576
  20 H :   -0.424828    0.005302
  21 C :    0.296143    0.000613
  22 H :   -0.459450    0.007568
  23 H :   -0.392227    0.000138
  24 H :   -0.388731    0.000677

  Mayer bond orders larger than 0.100000
B(  0-Cu,  1-S ) :   0.7149 B(  0-Cu,  3-S ) :   0.6934 B(  0-Cu,  5-S ) :   0.6841
B(  0-Cu,  7-S ) :   0.7092 B(  1-S ,  2-C ) :   1.1265 B(  2-C ,  6-C ) :   1.2331
B(  2-C , 17-C ) :   1.3629 B(  3-S ,  4-C ) :   1.2258 B(  4-C ,  8-C ) :   1.2404
B(  4-C , 10-C ) :   1.2957 B(  5-S ,  6-C ) :   1.2530 B(  6-C , 18-C ) :   1.2808
B(  7-S ,  8-C ) :   1.1461 B(  8-C ,  9-C ) :   1.3469 B(  9-C , 13-C ) :   1.3441
B(  9-C , 14-H ) :   0.9760 B( 10-C , 11-C ) :   1.3686 B( 10-C , 12-H ) :   0.9591
B( 11-C , 13-C ) :   1.3379 B( 11-C , 15-H ) :   0.9753 B( 13-C , 16-H ) :   0.9876
B( 17-C , 19-C ) :   1.3272 B( 17-C , 20-H ) :   0.9773 B( 18-C , 21-C ) :   1.3660
B( 18-C , 22-H ) :   0.9484 B( 19-C , 21-C ) :   1.3298 B( 19-C , 23-H ) :   0.9862
B( 21-C , 24-H ) :   0.9673

FINAL SINGLE POINT ENERGY     -3686.806990701337

DIPOLE MOMENT
-------------
                                X             Y             Z
Electronic contribution:      0.10234       0.17594      -0.00000
Nuclear contribution   :      0.00855      -0.23915       0.00000
                        -----------------------------------------
Total Dipole Moment    :      0.11089      -0.06321      -0.00000
                        -----------------------------------------
Magnitude (a.u.)       :      0.12764
Magnitude (Debye)      :      0.32444

Rotational constants in cm-1:     0.033395     0.004803     0.004199
Rotational constants in MHz :  1001.160527   143.988987   125.884078

                             ****ORCA TERMINATED NORMALLY****
TOTAL RUN TIME: 0 days 6 hours 15 minutes 43 seconds 370 msec
