                         Program Version 5.0.4 -  RELEASE  -
|  1> ! RIJCOSX nofrozencore ReducedPop printbasis
|  2> ! M06L ano-rcc-dzp autoaux
|  3>
|  4> %maxcore 5000
|  5> %basis
|  6> PCDTrimBas overlap
|  7> PCDTrimAuxJ Coulomb
|  8> PCDTrimAuxJK Coulomb
|  9> PCDTrimAuxC Coulomb
| 10> PCDThresh -1
| 11> end
| 12>
| 13> %basis
| 14> newgto Cu "ano-rcc-tzp" end
| 15> newgto S "ano-rcc-tzp" end
| 16> end
| 17>
| 18> %pal
| 19> nprocs 8
| 20> end
| 21>
| 22> % sym SymThresh 1e-2 end
| 23> * xyz -2 2
| 24> Cu -6.460497591987722e-06 4.9375785237485495e-05 -2.4985872068943878e-05
| 25> S -0.18078952054366942 1.4328867007764936 -1.8103515300914477
| 26> C -0.037501153062586695 0.42960368516552944 -3.250550886151634
| 27> S -0.24386269379453676 1.751547226110751 1.494219689942214
| 28> C -0.1604205941102084 1.0539459568795604 3.11732813911137
| 29> S 0.24431559661214852 -1.7547740339849554 -1.4975631854156326
| 30> C 0.14841489455031046 -0.968463752852671 -3.0275009866084504
| 31> S 0.18113083011207265 -1.435598750102572 1.813919682727117
| 32> C 0.028956432973782077 -0.36106676436457136 3.1473117209538897
| 33> C 0.1010159848518047 -0.9614325345795955 4.503965913811546
| 34> C -0.26144331765552736 1.7568174125301859 4.2298805058753155
| 35> C -0.1955765199930834 1.206912715952627 5.494572785809306
| 36> H -0.3967967900861686 2.7883031559953415 3.7711917460510715
| 37> C -0.012559038134800483 -0.16625501900712888 5.646758181310146
| 38> H 0.238180025556733 -2.0053062453497223 4.9381724068785
| 39> H -0.2939018023884556 1.902676772936696 6.3241823686390495
| 40> H 0.033296781326969636 -0.5554010518876319 6.664216590330807
| 41> C -0.09564291028161089 0.9209110202510955 -4.494987172742315
| 42> C 0.2670741033673859 -1.7988877311896008 -4.229044221137683
| 43> C 0.016424468071980818 0.136640410012901 -5.630240573901088
| 44> H -0.24303569588345877 2.0136608693405154 -4.33243112538148
| 45> C 0.19986290805580786 -1.2383524168464288 -5.506662342587122
| 46> H 0.4151449939391838 -2.89752583988791 -4.373651498835166
| 47> H -0.04561599330502592 0.6438967678281159 -6.589011142274029
| 48> H 0.2844903333928383 -1.8280962306801207 -6.418162053773974
| 49> *
| 50>
| 51> % eprnmr
| 52> gtensor true
| 53> Nuclei = all H {aiso,adip,aorb,fgrad,rho}
| 54> Nuclei = all Cu {aiso,adip,aorb,fgrad,rho}
| 55> end
| 56>
| 57>                          ****END OF INPUT****

CARTESIAN COORDINATES (ANGSTROEM)
---------------------------------
  Cu     0.000050   -0.000025    0.000000
  S      1.444946   -1.809794    0.000000
  C      0.432110   -3.250435    0.000000
  S      1.767806    1.494972    0.000000
  C      1.064638    3.117823    0.000000
  S     -1.771063   -1.498317    0.000000
  C     -0.978355   -3.027958    0.000000
  S     -1.447681    1.813361    0.000000
  C     -0.363004    3.147222    0.000000
  C     -0.968177    4.503654    0.000000
  C      1.774244    4.230687    0.000000
  C      1.219944    5.495176    0.000000
  H      2.814756    3.772415    0.000000
  C     -0.165428    5.646797    0.000000
  H     -2.021198    4.937437    0.000000
  H      1.922264    6.325088    0.000000
  H     -0.557634    6.664113    0.000000
  C      0.927297   -4.494692    0.000000
  C     -1.816690   -4.229868    0.000000
  C      0.135555   -5.630291    0.000000
  H      2.029875   -4.331681    0.000000
  C     -1.251670   -5.507278    0.000000
  H     -2.925201   -4.374931    0.000000
  H      0.646950   -6.588870    0.000000
  H     -1.847056   -6.419039    0.000000

 Total Charge           Charge          ....   -2
 Multiplicity           Mult            ....    2
 Number of Electrons    NEL             ....  175
 Basis Dimension        Dim             ....  475

ORBITAL ENERGIES
----------------
                 SPIN UP ORBITALS
  NO   OCC          E(Eh)            E(eV)    Irrep
   0   1.0000    -318.183443     -8658.2116    1-A'
   1   1.0000     -88.020542     -2395.1607    2-A'
   2   1.0000     -88.019319     -2395.1274    3-A'
   3   1.0000     -88.013060     -2394.9571    4-A'
   4   1.0000     -88.012493     -2394.9417    5-A'
   5   1.0000     -38.028550     -1034.8095    6-A'
   6   1.0000     -33.531682      -912.4434    7-A'
   7   1.0000     -33.530849      -912.4208    8-A'
   8   1.0000     -33.517067      -912.0458    1-A"
   9   1.0000      -9.845707      -267.9153    9-A'
  10   1.0000      -9.842841      -267.8373   10-A'
  11   1.0000      -9.829389      -267.4713   11-A'
  12   1.0000      -9.826140      -267.3829   12-A'
  13   1.0000      -9.826053      -267.3805   13-A'
  14   1.0000      -9.825528      -267.3662   14-A'
  15   1.0000      -9.825096      -267.3544   15-A'
  16   1.0000      -9.824138      -267.3284   16-A'
  17   1.0000      -9.823525      -267.3117   17-A'
  18   1.0000      -9.823181      -267.3024   18-A'
  19   1.0000      -9.812465      -267.0108   19-A'
  20   1.0000      -9.811642      -266.9883   20-A'
  21   1.0000      -7.589411      -206.5184   21-A'
  22   1.0000      -7.588210      -206.4857   22-A'
  23   1.0000      -7.581607      -206.3060   23-A'
  24   1.0000      -7.581000      -206.2895   24-A'
  25   1.0000      -5.512448      -150.0013   25-A'
  26   1.0000      -5.511284      -149.9697   26-A'
  27   1.0000      -5.507281      -149.8607   27-A'
  28   1.0000      -5.506080      -149.8280   28-A'
  29   1.0000      -5.505694      -149.8175    2-A"
  30   1.0000      -5.504921      -149.7965   29-A'
  31   1.0000      -5.504444      -149.7835    3-A"
  32   1.0000      -5.504358      -149.7812   30-A'
  33   1.0000      -5.499610      -149.6520   31-A'
  34   1.0000      -5.499024      -149.6360   32-A'
  35   1.0000      -5.497485      -149.5942    4-A"
  36   1.0000      -5.496821      -149.5761    5-A"
  37   1.0000      -4.026136      -109.5567   33-A'
  38   1.0000      -2.547561       -69.3227   34-A'
  39   1.0000      -2.546061       -69.2818   35-A'
  40   1.0000      -2.518602       -68.5347    6-A"
  41   1.0000      -0.592660       -16.1271   36-A'
  42   1.0000      -0.591433       -16.0937   37-A'
  43   1.0000      -0.507828       -13.8187   38-A'
  44   1.0000      -0.506479       -13.7820   39-A'
  45   1.0000      -0.491359       -13.3706   40-A'
  46   1.0000      -0.490765       -13.3544   41-A'
  47   1.0000      -0.412865       -11.2346   42-A'
  48   1.0000      -0.410327       -11.1656   43-A'
  49   1.0000      -0.387767       -10.5517   44-A'
  50   1.0000      -0.381082       -10.3698   45-A'
  51   1.0000      -0.325221        -8.8497   46-A'
  52   1.0000      -0.321958        -8.7609   47-A'
  53   1.0000      -0.298861        -8.1324   48-A'
  54   1.0000      -0.295691        -8.0462   49-A'
  55   1.0000      -0.231630        -6.3030   50-A'
  56   1.0000      -0.226097        -6.1524   51-A'
  57   1.0000      -0.201538        -5.4841   52-A'
  58   1.0000      -0.198646        -5.4054   53-A'
  59   1.0000      -0.163640        -4.4529   54-A'
  60   1.0000      -0.157947        -4.2980   55-A'
  61   1.0000      -0.142377        -3.8743   56-A'
  62   1.0000      -0.138315        -3.7637   57-A'
  63   1.0000      -0.129354        -3.5199   58-A'
  64   1.0000      -0.119293        -3.2461    7-A"
  65   1.0000      -0.118526        -3.2253    8-A"
  66   1.0000      -0.109689        -2.9848   59-A'
  67   1.0000      -0.079184        -2.1547   60-A'
  68   1.0000      -0.070342        -1.9141   61-A'
  69   1.0000      -0.067161        -1.8275   62-A'
  70   1.0000      -0.055071        -1.4986   63-A'
  71   1.0000      -0.040410        -1.0996    9-A"
  72   1.0000      -0.038869        -1.0577   10-A"
  73   1.0000      -0.034265        -0.9324   64-A'
  74   1.0000      -0.029553        -0.8042   65-A'
  75   1.0000      -0.028431        -0.7736   11-A"
  76   1.0000      -0.021543        -0.5862   12-A"
  77   1.0000      -0.004568        -0.1243   13-A"
  78   1.0000      -0.002161        -0.0588   66-A'
  79   1.0000      -0.000147        -0.0040   14-A"
  80   1.0000       0.016517         0.4495   67-A'
  81   1.0000       0.018147         0.4938   68-A'
  82   1.0000       0.033141         0.9018   69-A'
  83   1.0000       0.049144         1.3373   15-A"
  84   1.0000       0.051062         1.3895   16-A"
  85   1.0000       0.061639         1.6773   17-A"
  86   1.0000       0.086413         2.3514   18-A"
  87   1.0000       0.103233         2.8091   70-A'
  88   0.0000       0.180608         4.9146   71-A'
  89   0.0000       0.180783         4.9194   72-A'
  90   0.0000       0.195009         5.3065   19-A"
  91   0.0000       0.196754         5.3539   73-A'
  92   0.0000       0.197007         5.3608   74-A'

                 SPIN DOWN ORBITALS
  NO   OCC          E(Eh)            E(eV)    Irrep
   0   1.0000    -318.183268     -8658.2069    1-A'
   1   1.0000     -88.019438     -2395.1307    2-A'
   2   1.0000     -88.018216     -2395.0974    3-A'
   3   1.0000     -88.012019     -2394.9288    4-A'
   4   1.0000     -88.011463     -2394.9137    5-A'
   5   1.0000     -38.012689     -1034.3778    6-A'
   6   1.0000     -33.516529      -912.0311    7-A'
   7   1.0000     -33.515729      -912.0093    8-A'
   8   1.0000     -33.512745      -911.9281    1-A"
   9   1.0000      -9.845836      -267.9188    9-A'
  10   1.0000      -9.842966      -267.8407   10-A'
  11   1.0000      -9.829337      -267.4699   11-A'
  12   1.0000      -9.826163      -267.3835   12-A'
  13   1.0000      -9.826088      -267.3814   13-A'
  14   1.0000      -9.825487      -267.3651   14-A'
  15   1.0000      -9.825060      -267.3535   15-A'
  16   1.0000      -9.824248      -267.3314   16-A'
  17   1.0000      -9.823510      -267.3113   17-A'
  18   1.0000      -9.823166      -267.3019   18-A'
  19   1.0000      -9.812379      -267.0084   19-A'
  20   1.0000      -9.811537      -266.9855   20-A'
  21   1.0000      -7.588650      -206.4977   21-A'
  22   1.0000      -7.587448      -206.4649   22-A'
  23   1.0000      -7.580902      -206.2868   23-A'
  24   1.0000      -7.580300      -206.2705   24-A'
  25   1.0000      -5.511499      -149.9755   25-A'
  26   1.0000      -5.510328      -149.9436   26-A'
  27   1.0000      -5.504944      -149.7971   27-A'
  28   1.0000      -5.504843      -149.7944    2-A"
  29   1.0000      -5.504020      -149.7720   28-A'
  30   1.0000      -5.503749      -149.7646   29-A'
  31   1.0000      -5.503595      -149.7604    3-A"
  32   1.0000      -5.503464      -149.7569   30-A'
  33   1.0000      -5.497439      -149.5929   31-A'
  34   1.0000      -5.496873      -149.5775   32-A'
  35   1.0000      -5.496703      -149.5729    4-A"
  36   1.0000      -5.496045      -149.5550    5-A"
  37   1.0000      -3.992418      -108.6392   33-A'
  38   1.0000      -2.506896       -68.2161    6-A"
  39   1.0000      -2.505522       -68.1787   34-A'
  40   1.0000      -2.504001       -68.1373   35-A'
  41   1.0000      -0.592287       -16.1169   36-A'
  42   1.0000      -0.591063       -16.0836   37-A'
  43   1.0000      -0.506737       -13.7890   38-A'
  44   1.0000      -0.505364       -13.7517   39-A'
  45   1.0000      -0.489975       -13.3329   40-A'
  46   1.0000      -0.489429       -13.3180   41-A'
  47   1.0000      -0.409329       -11.1384   42-A'
  48   1.0000      -0.406653       -11.0656   43-A'
  49   1.0000      -0.384344       -10.4585   44-A'
  50   1.0000      -0.377674       -10.2770   45-A'
  51   1.0000      -0.323586        -8.8052   46-A'
  52   1.0000      -0.320077        -8.7097   47-A'
  53   1.0000      -0.297382        -8.0922   48-A'
  54   1.0000      -0.293861        -7.9964   49-A'
  55   1.0000      -0.231028        -6.2866   50-A'
  56   1.0000      -0.225391        -6.1332   51-A'
  57   1.0000      -0.200514        -5.4563   52-A'
  58   1.0000      -0.197610        -5.3773   53-A'
  59   1.0000      -0.162915        -4.4332   54-A'
  60   1.0000      -0.156710        -4.2643   55-A'
  61   1.0000      -0.141490        -3.8501   56-A'
  62   1.0000      -0.137269        -3.7353   57-A'
  63   1.0000      -0.128095        -3.4856   58-A'
  64   1.0000      -0.119110        -3.2411    7-A"
  65   1.0000      -0.118335        -3.2201    8-A"
  66   1.0000      -0.108516        -2.9529   59-A'
  67   1.0000      -0.077256        -2.1022   60-A'
  68   1.0000      -0.069152        -1.8817   61-A'
  69   1.0000      -0.054705        -1.4886   62-A'
  70   1.0000      -0.052114        -1.4181   63-A'
  71   1.0000      -0.038428        -1.0457    9-A"
  72   1.0000      -0.037942        -1.0325   10-A"
  73   1.0000      -0.025293        -0.6883   11-A"
  74   1.0000      -0.022905        -0.6233   64-A'
  75   1.0000      -0.020582        -0.5601   12-A"
  76   1.0000      -0.004754        -0.1294   65-A'
  77   1.0000       0.005207         0.1417   13-A"
  78   1.0000       0.008561         0.2330   66-A'
  79   1.0000       0.012046         0.3278   14-A"
  80   1.0000       0.024819         0.6754   67-A'
  81   1.0000       0.032139         0.8746   68-A'
  82   1.0000       0.041405         1.1267   69-A'
  83   1.0000       0.051940         1.4134   15-A"
  84   1.0000       0.056581         1.5397   16-A"
  85   1.0000       0.063445         1.7264   17-A"
  86   1.0000       0.090525         2.4633   18-A"
  87   0.0000       0.136174         3.7055   70-A'
  88   0.0000       0.182205         4.9580   71-A'
  89   0.0000       0.182339         4.9617   72-A'
  90   0.0000       0.195222         5.3123   19-A"
  91   0.0000       0.198793         5.4094   73-A'

MULLIKEN ATOMIC CHARGES AND SPIN POPULATIONS
--------------------------------------------
   0 Cu:    0.141699    0.374916
   1 S :   -0.444639    0.159023
   2 C :    0.088657   -0.007253
   3 S :   -0.448645    0.156915
   4 C :    0.111807   -0.007159
   5 S :   -0.394842    0.166896
   6 C :   -0.002645   -0.009061
   7 S :   -0.384966    0.167066
   8 C :   -0.005512   -0.009597
   9 C :   -0.129233   -0.000215
  10 C :   -0.100797    0.002402
  11 C :   -0.189354   -0.001932
  12 H :    0.064848    0.001875
  13 C :   -0.077473    0.000300
  14 H :    0.025667   -0.000045
  15 H :    0.029839    0.000653
  16 H :    0.032091    0.001806
  17 C :   -0.098881    0.000914
  18 C :   -0.118804   -0.000519
  19 C :   -0.179080   -0.001729
  20 H :    0.070765    0.002003
  21 C :   -0.090669    0.000078
  22 H :    0.037844    0.000311
  23 H :    0.031063    0.000756
  24 H :    0.031260    0.001594
Sum of atomic charges         :   -2.0000000

LOEWDIN ATOMIC CHARGES AND SPIN POPULATIONS
-------------------------------------------
   0 Cu:   -0.889316    0.442010
   1 S :    0.029672    0.118489
   2 C :   -0.048373    0.004501
   3 S :    0.037996    0.116397
   4 C :   -0.052884    0.004083
   5 S :    0.001626    0.129018
   6 C :   -0.031665    0.005196
   7 S :    0.000775    0.129347
   8 C :   -0.028814    0.004939
   9 C :    0.311766    0.004232
  10 C :    0.274852    0.004681
  11 C :    0.308467   -0.000554
  12 H :   -0.463731    0.011324
  13 C :    0.299787    0.000694
  14 H :   -0.408436    0.002937
  15 H :   -0.426531   -0.000241
  16 H :   -0.410507    0.000704
  17 C :    0.284448    0.004222
  18 C :    0.312974    0.004161
  19 C :    0.310622   -0.000523
  20 H :   -0.460094    0.009905
  21 C :    0.304195    0.000490
  22 H :   -0.420024    0.003550
  23 H :   -0.424791   -0.000132
  24 H :   -0.412014    0.000572

  Mayer bond orders larger than 0.100000
B(  0-Cu,  1-S ) :   0.7090 B(  0-Cu,  3-S ) :   0.7080 B(  0-Cu,  5-S ) :   0.6935
B(  0-Cu,  7-S ) :   0.6921 B(  1-S ,  2-C ) :   1.1474 B(  2-C ,  6-C ) :   1.2385
B(  2-C , 17-C ) :   1.3365 B(  3-S ,  4-C ) :   1.1299 B(  4-C ,  8-C ) :   1.2380
B(  4-C , 10-C ) :   1.3421 B(  5-S ,  6-C ) :   1.2143 B(  6-C , 18-C ) :   1.3062
B(  7-S ,  8-C ) :   1.2232 B(  8-C ,  9-C ) :   1.2988 B(  9-C , 13-C ) :   1.3721
B(  9-C , 14-H ) :   0.9875 B( 10-C , 11-C ) :   1.3491 B( 10-C , 12-H ) :   0.9499
B( 11-C , 13-C ) :   1.3428 B( 11-C , 15-H ) :   0.9933 B( 13-C , 16-H ) :   0.9836
B( 17-C , 19-C ) :   1.3510 B( 17-C , 20-H ) :   0.9530 B( 18-C , 21-C ) :   1.3685
B( 18-C , 22-H ) :   0.9845 B( 19-C , 21-C ) :   1.3432 B( 19-C , 23-H ) :   0.9920
B( 21-C , 24-H ) :   0.9851

FINAL SINGLE POINT ENERGY     -3686.861187459753

DIPOLE MOMENT
-------------
                                X             Y             Z
Electronic contribution:     -0.28738      -0.00155       0.00000
Nuclear contribution   :      0.05879      -0.01439       0.00000
                        -----------------------------------------
Total Dipole Moment    :     -0.22858      -0.01594       0.00000
                        -----------------------------------------
Magnitude (a.u.)       :      0.22914
Magnitude (Debye)      :      0.58243

Rotational constants in cm-1:     0.033412     0.004803     0.004200
Rotational constants in MHz :  1001.670949   144.001923   125.902033

                             ****ORCA TERMINATED NORMALLY****
TOTAL RUN TIME: 0 days 6 hours 21 minutes 1 seconds 520 msec
