                         Program Version 5.0.4 -  RELEASE  -
|  1> ! RIJCOSX nofrozencore ReducedPop printbasis
|  2> ! M06L ano-rcc-dzp autoaux
|  3>
|  4> %maxcore 5000
|  5> %basis
|  6> PCDTrimBas overlap
|  7> PCDTrimAuxJ Coulomb
|  8> PCDTrimAuxJK Coulomb
|  9> PCDTrimAuxC Coulomb
| 10> PCDThresh -1
| 11> end
| 12>
| 13> %basis
| 14> newgto Cu "ano-rcc-tzp" end
| 15> newgto S "ano-rcc-tzp" end
| 16> end
| 17>
| 18> %pal
| 19> nprocs 4
| 20> end
| 21>
| 22> % sym SymThresh 1e-2 end
| 23> * xyz -2 2
| 24> Cu -0.012064648974284537 0.01280505419280916 0.0023479925993315325
| 25> S -0.14858402685111072 2.1409568321546333 -0.81610439099977
| 26> C 1.1776827524161866 2.4904868693221847 -1.822919417377307
| 27> S -1.9404219187135574 0.09327737808830429 1.2154070763007627
| 28> C -2.239423518070828 -1.3636872358614986 2.029595410702513
| 29> S 2.0040163478045105 -0.23656501298580115 -1.1954910179036475
| 30> C 2.07741429020754 1.3880121982392142 -1.9351650288465447
| 31> S 0.2815410498483993 -2.2056097971483903 0.7576491414218706
| 32> C -1.2036191125065983 -2.3125740362508966 1.7638914147869384
| 33> C -1.3935385275409389 -3.514420041369123 2.3988200928346184
| 34> C -3.363053407208474 -1.6344650207199358 2.8717813330193613
| 35> C -3.4875609168064066 -2.879286513765193 3.4827096235365853
| 36> H -4.099134173108237 -0.8494281273370387 3.0134224641153358
| 37> C -2.472864725765451 -3.8076072250998614 3.2218965895542486
| 38> H -0.6463218288985595 -4.28618088532292 2.244317848431156
| 39> H -4.326613670212753 -3.1315231520835654 4.132918515915085
| 40> H -2.508388741398974 -4.801609716750598 3.668397912811413
| 41> C 1.3867843928082022 3.734343207205222 -2.488155693602956
| 42> C 3.165040518986141 1.631835758789205 -2.7425775864616484
| 43> C 2.5088491036207916 3.9159618276890105 -3.291340410568876
| 44> H 0.6515617471671082 4.520139373044783 -2.347391877135955
| 45> C 3.387995988154505 2.8343066298929114 -3.3991416841436703
| 46> H 3.8882713208494835 0.8331750876774537 -2.8701032634856682
| 47> H 2.7032029235767028 4.851325869597498 -3.8155952942573013
| 48> H 4.283659209257751 2.916334289999353 -4.013446385357506
| 49> *
| 50>
| 51> % eprnmr
| 52> gtensor true
| 53> Nuclei = all H {aiso,adip,aorb,fgrad,rho}
| 54> Nuclei = all Cu {aiso,adip,aorb,fgrad,rho}
| 55> end
| 56>
| 57>                          ****END OF INPUT****

CARTESIAN COORDINATES (ANGSTROEM)
---------------------------------
  Cu    -0.012796    0.012301    0.000000
  S      0.073213    2.294872    0.000000
  C      1.684354    2.841733    0.000000
  S     -2.286844   -0.146611    0.000000
  C     -2.810454   -1.759336    0.000000
  S      2.345473   -0.000137    0.000000
  C      2.621446    1.764968    0.000000
  S      0.076700   -2.347792    0.000000
  C     -1.694361   -2.652763    0.000000
  C     -2.059115   -3.975863    0.000000
  C     -4.172483   -2.195249    0.000000
  C     -4.464782   -3.556453    0.000000
  H     -4.952734   -1.440684    0.000000
  C     -3.371290   -4.430345    0.000000
  H     -1.264132   -4.714659    0.000000
  H     -5.487679   -3.936041    0.000000
  H     -3.529033   -5.509133    0.000000
  C      2.076711    4.212681    0.000000
  C      3.937705    2.167159    0.000000
  C      3.426510    4.552036    0.000000
  H      1.297564    4.968176    0.000000
  C      4.341651    3.495146    0.000000
  H      4.701156    1.396232    0.000000
  H      3.765503    5.587703    0.000000
  H      5.411773    3.698001    0.000000

 Total Charge           Charge          ....   -2
 Multiplicity           Mult            ....    2
 Number of Electrons    NEL             ....  175
 Basis Dimension        Dim             ....  475

ORBITAL ENERGIES
----------------
                 SPIN UP ORBITALS
  NO   OCC          E(Eh)            E(eV)    Irrep
   0   1.0000    -318.181426     -8658.1568    1-A'
   1   1.0000     -88.020715     -2395.1654    2-A'
   2   1.0000     -88.019729     -2395.1386    3-A'
   3   1.0000     -88.009805     -2394.8686    4-A'
   4   1.0000     -88.009459     -2394.8591    5-A'
   5   1.0000     -38.026267     -1034.7473    6-A'
   6   1.0000     -33.529364      -912.3804    7-A'
   7   1.0000     -33.528489      -912.3566    8-A'
   8   1.0000     -33.515030      -911.9903    1-A"
   9   1.0000      -9.835988      -267.6508    9-A'
  10   1.0000      -9.835131      -267.6275   10-A'
  11   1.0000      -9.831069      -267.5170   11-A'
  12   1.0000      -9.830914      -267.5128   12-A'
  13   1.0000      -9.829513      -267.4746   13-A'
  14   1.0000      -9.828494      -267.4469   14-A'
  15   1.0000      -9.823553      -267.3125   15-A'
  16   1.0000      -9.822518      -267.2843   16-A'
  17   1.0000      -9.819969      -267.2149   17-A'
  18   1.0000      -9.819761      -267.2093   18-A'
  19   1.0000      -9.809948      -266.9423   19-A'
  20   1.0000      -9.808913      -266.9141   20-A'
  21   1.0000      -7.587785      -206.4741   21-A'
  22   1.0000      -7.587035      -206.4537   22-A'
  23   1.0000      -7.580041      -206.2634   23-A'
  24   1.0000      -7.579903      -206.2596   24-A'
  25   1.0000      -5.511512      -149.9759   25-A'
  26   1.0000      -5.510661      -149.9527   26-A'
  27   1.0000      -5.506002      -149.8259   27-A'
  28   1.0000      -5.505230      -149.8049   28-A'
  29   1.0000      -5.503585      -149.7602    2-A"
  30   1.0000      -5.502896      -149.7414   29-A'
  31   1.0000      -5.502884      -149.7411    3-A"
  32   1.0000      -5.502720      -149.7366   30-A'
  33   1.0000      -5.497626      -149.5980   31-A'
  34   1.0000      -5.497449      -149.5932   32-A'
  35   1.0000      -5.496303      -149.5620    4-A"
  36   1.0000      -5.496190      -149.5589    5-A"
  37   1.0000      -4.023956      -109.4974   33-A'
  38   1.0000      -2.545245       -69.2596   34-A'
  39   1.0000      -2.543739       -69.2187   35-A'
  40   1.0000      -2.516779       -68.4850    6-A"
  41   1.0000      -0.589946       -16.0532   36-A'
  42   1.0000      -0.589783       -16.0488   37-A'
  43   1.0000      -0.506132       -13.7726   38-A'
  44   1.0000      -0.505029       -13.7425   39-A'
  45   1.0000      -0.490424       -13.3451   40-A'
  46   1.0000      -0.490044       -13.3348   41-A'
  47   1.0000      -0.409870       -11.1531   42-A'
  48   1.0000      -0.407344       -11.0844   43-A'
  49   1.0000      -0.387301       -10.5390   44-A'
  50   1.0000      -0.380534       -10.3549   45-A'
  51   1.0000      -0.322917        -8.7870   46-A'
  52   1.0000      -0.320144        -8.7116   47-A'
  53   1.0000      -0.297923        -8.1069   48-A'
  54   1.0000      -0.294465        -8.0128   49-A'
  55   1.0000      -0.231800        -6.3076   50-A'
  56   1.0000      -0.226579        -6.1655   51-A'
  57   1.0000      -0.190266        -5.1774   52-A'
  58   1.0000      -0.189345        -5.1524   53-A'
  59   1.0000      -0.177998        -4.8436   54-A'
  60   1.0000      -0.174893        -4.7591   55-A'
  61   1.0000      -0.147921        -4.0251   56-A'
  62   1.0000      -0.143924        -3.9164   57-A'
  63   1.0000      -0.128932        -3.5084   58-A'
  64   1.0000      -0.117325        -3.1926    7-A"
  65   1.0000      -0.117194        -3.1890    8-A"
  66   1.0000      -0.113270        -3.0822   59-A'
  67   1.0000      -0.084717        -2.3053   60-A'
  68   1.0000      -0.072936        -1.9847   61-A'
  69   1.0000      -0.068716        -1.8699   62-A'
  70   1.0000      -0.059534        -1.6200   63-A'
  71   1.0000      -0.039337        -1.0704    9-A"
  72   1.0000      -0.037787        -1.0282   10-A"
  73   1.0000      -0.031537        -0.8582   64-A'
  74   1.0000      -0.026489        -0.7208   11-A"
  75   1.0000      -0.024698        -0.6721   65-A'
  76   1.0000      -0.019753        -0.5375   12-A"
  77   1.0000      -0.002837        -0.0772   13-A"
  78   1.0000      -0.002537        -0.0690   66-A'
  79   1.0000       0.001305         0.0355   14-A"
  80   1.0000       0.016178         0.4402   67-A'
  81   1.0000       0.025516         0.6943   68-A'
  82   1.0000       0.041225         1.1218   69-A'
  83   1.0000       0.049925         1.3585   15-A"
  84   1.0000       0.050401         1.3715   16-A"
  85   1.0000       0.064448         1.7537   17-A"
  86   1.0000       0.087924         2.3925   18-A"
  87   1.0000       0.104084         2.8323   70-A'
  88   0.0000       0.181071         4.9272   71-A'
  89   0.0000       0.181241         4.9318   72-A'
  90   0.0000       0.197402         5.3716   73-A'
  91   0.0000       0.197579         5.3764   74-A'
  92   0.0000       0.200649         5.4599   19-A"

                 SPIN DOWN ORBITALS
  NO   OCC          E(Eh)            E(eV)    Irrep
   0   1.0000    -318.181257     -8658.1522    1-A'
   1   1.0000     -88.019483     -2395.1319    2-A'
   2   1.0000     -88.018513     -2395.1055    3-A'
   3   1.0000     -88.008856     -2394.8427    4-A'
   4   1.0000     -88.008511     -2394.8333    5-A'
   5   1.0000     -38.010689     -1034.3234    6-A'
   6   1.0000     -33.514484      -911.9755    7-A'
   7   1.0000     -33.513639      -911.9525    8-A'
   8   1.0000     -33.510780      -911.8747    1-A"
   9   1.0000      -9.836116      -267.6543    9-A'
  10   1.0000      -9.835256      -267.6309   10-A'
  11   1.0000      -9.831173      -267.5198   11-A'
  12   1.0000      -9.831021      -267.5157   12-A'
  13   1.0000      -9.829495      -267.4741   13-A'
  14   1.0000      -9.828476      -267.4464   14-A'
  15   1.0000      -9.823475      -267.3103   15-A'
  16   1.0000      -9.822444      -267.2823   16-A'
  17   1.0000      -9.819944      -267.2143   17-A'
  18   1.0000      -9.819738      -267.2086   18-A'
  19   1.0000      -9.809903      -266.9410   19-A'
  20   1.0000      -9.808871      -266.9130   20-A'
  21   1.0000      -7.586927      -206.4508   21-A'
  22   1.0000      -7.586191      -206.4308   22-A'
  23   1.0000      -7.579397      -206.2459   23-A'
  24   1.0000      -7.579262      -206.2422   24-A'
  25   1.0000      -5.510498      -149.9483   25-A'
  26   1.0000      -5.509650      -149.9252   26-A'
  27   1.0000      -5.503308      -149.7526   27-A'
  28   1.0000      -5.502645      -149.7346    2-A"
  29   1.0000      -5.502589      -149.7331   28-A'
  30   1.0000      -5.502054      -149.7185   29-A'
  31   1.0000      -5.501957      -149.7159    3-A"
  32   1.0000      -5.501881      -149.7138   30-A'
  33   1.0000      -5.495679      -149.5450   31-A'
  34   1.0000      -5.495577      -149.5422    4-A"
  35   1.0000      -5.495512      -149.5405   32-A'
  36   1.0000      -5.495463      -149.5391    5-A"
  37   1.0000      -3.990875      -108.5972   33-A'
  38   1.0000      -2.505270       -68.1719    6-A"
  39   1.0000      -2.503998       -68.1372   34-A'
  40   1.0000      -2.502447       -68.0950   35-A'
  41   1.0000      -0.589559       -16.0427   36-A'
  42   1.0000      -0.589400       -16.0384   37-A'
  43   1.0000      -0.504834       -13.7372   38-A'
  44   1.0000      -0.503797       -13.7090   39-A'
  45   1.0000      -0.489336       -13.3155   40-A'
  46   1.0000      -0.488961       -13.3053   41-A'
  47   1.0000      -0.405993       -11.0476   42-A'
  48   1.0000      -0.403454       -10.9785   43-A'
  49   1.0000      -0.383941       -10.4476   44-A'
  50   1.0000      -0.377191       -10.2639   45-A'
  51   1.0000      -0.321622        -8.7518   46-A'
  52   1.0000      -0.318504        -8.6669   47-A'
  53   1.0000      -0.296183        -8.0596   48-A'
  54   1.0000      -0.292294        -7.9537   49-A'
  55   1.0000      -0.231241        -6.2924   50-A'
  56   1.0000      -0.225851        -6.1457   51-A'
  57   1.0000      -0.189268        -5.1502   52-A'
  58   1.0000      -0.188431        -5.1275   53-A'
  59   1.0000      -0.177470        -4.8292   54-A'
  60   1.0000      -0.173981        -4.7343   55-A'
  61   1.0000      -0.147085        -4.0024   56-A'
  62   1.0000      -0.142531        -3.8785   57-A'
  63   1.0000      -0.127927        -3.4811   58-A'
  64   1.0000      -0.117148        -3.1878    7-A"
  65   1.0000      -0.116997        -3.1837    8-A"
  66   1.0000      -0.112010        -3.0479   59-A'
  67   1.0000      -0.083268        -2.2658   60-A'
  68   1.0000      -0.071133        -1.9356   61-A'
  69   1.0000      -0.060738        -1.6528   62-A'
  70   1.0000      -0.053479        -1.4552   63-A'
  71   1.0000      -0.037380        -1.0171    9-A"
  72   1.0000      -0.036888        -1.0038   10-A"
  73   1.0000      -0.023470        -0.6387   11-A"
  74   1.0000      -0.018932        -0.5152   12-A"
  75   1.0000      -0.017968        -0.4889   64-A'
  76   1.0000      -0.000897        -0.0244   65-A'
  77   1.0000       0.006776         0.1844   13-A"
  78   1.0000       0.007591         0.2066   66-A'
  79   1.0000       0.013360         0.3636   14-A"
  80   1.0000       0.032074         0.8728   67-A'
  81   1.0000       0.032204         0.8763   68-A'
  82   1.0000       0.049418         1.3447   69-A'
  83   1.0000       0.052963         1.4412   15-A"
  84   1.0000       0.055776         1.5178   16-A"
  85   1.0000       0.066520         1.8101   17-A"
  86   1.0000       0.092006         2.5036   18-A"
  87   0.0000       0.136405         3.7118   70-A'
  88   0.0000       0.182577         4.9682   71-A'
  89   0.0000       0.182689         4.9712   72-A'
  90   0.0000       0.198980         5.4145   73-A'
  91   0.0000       0.199153         5.4192   74-A'

MULLIKEN ATOMIC CHARGES AND SPIN POPULATIONS
--------------------------------------------
   0 Cu:    0.153532    0.369568
   1 S :   -0.389747    0.146025
   2 C :    0.012295   -0.007691
   3 S :   -0.384945    0.145956
   4 C :    0.010249   -0.007831
   5 S :   -0.451143    0.183065
   6 C :    0.021906   -0.008313
   7 S :   -0.449479    0.184468
   8 C :    0.019038   -0.008434
   9 C :   -0.026402   -0.002497
  10 C :   -0.153657   -0.000093
  11 C :   -0.133605   -0.001463
  12 H :    0.056155    0.001334
  13 C :   -0.140986   -0.000504
  14 H :    0.070709    0.002531
  15 H :    0.020575    0.001893
  16 H :    0.035409    0.000439
  17 C :   -0.145088   -0.000312
  18 C :   -0.034718   -0.002473
  19 C :   -0.136133   -0.001430
  20 H :    0.057689    0.001489
  21 C :   -0.138869   -0.000459
  22 H :    0.069324    0.002445
  23 H :    0.022069    0.001763
  24 H :    0.035822    0.000525
Sum of atomic charges         :   -2.0000000

LOEWDIN ATOMIC CHARGES AND SPIN POPULATIONS
-------------------------------------------
   0 Cu:   -0.886673    0.433675
   1 S :    0.003811    0.107957
   2 C :   -0.045864    0.006586
   3 S :    0.000282    0.107585
   4 C :   -0.045687    0.006825
   5 S :    0.011108    0.143855
   6 C :   -0.022664    0.002780
   7 S :    0.013971    0.146031
   8 C :   -0.017899    0.002261
   9 C :    0.290767    0.003958
  10 C :    0.313532    0.003875
  11 C :    0.312368   -0.000046
  12 H :   -0.438675    0.003958
  13 C :    0.309967   -0.000193
  14 H :   -0.463773    0.009302
  15 H :   -0.408470    0.000572
  16 H :   -0.423017   -0.000117
  17 C :    0.313266    0.003841
  18 C :    0.293666    0.004019
  19 C :    0.312655   -0.000097
  20 H :   -0.439625    0.004233
  21 C :    0.310108   -0.000135
  22 H :   -0.459865    0.008835
  23 H :   -0.409937    0.000502
  24 H :   -0.423351   -0.000061

  Mayer bond orders larger than 0.100000
B(  0-Cu,  1-S ) :   0.7320 B(  0-Cu,  3-S ) :   0.7336 B(  0-Cu,  5-S ) :   0.6602
B(  0-Cu,  7-S ) :   0.6580 B(  1-S ,  2-C ) :   1.2008 B(  2-C ,  6-C ) :   1.2421
B(  2-C , 17-C ) :   1.3177 B(  3-S ,  4-C ) :   1.2026 B(  4-C ,  8-C ) :   1.2410
B(  4-C , 10-C ) :   1.3179 B(  5-S ,  6-C ) :   1.1703 B(  6-C , 18-C ) :   1.3249
B(  7-S ,  8-C ) :   1.1661 B(  8-C ,  9-C ) :   1.3279 B(  9-C , 13-C ) :   1.3445
B(  9-C , 14-H ) :   0.9624 B( 10-C , 11-C ) :   1.3695 B( 10-C , 12-H ) :   0.9778
B( 11-C , 13-C ) :   1.3403 B( 11-C , 15-H ) :   0.9940 B( 13-C , 16-H ) :   0.9866
B( 17-C , 19-C ) :   1.3688 B( 17-C , 20-H ) :   0.9766 B( 18-C , 21-C ) :   1.3477
B( 18-C , 22-H ) :   0.9638 B( 19-C , 21-C ) :   1.3401 B( 19-C , 23-H ) :   0.9936
B( 21-C , 24-H ) :   0.9863

FINAL SINGLE POINT ENERGY     -3686.895934723317

DIPOLE MOMENT
-------------
                                X             Y             Z
Electronic contribution:      0.01064       0.00504      -0.00000
Nuclear contribution   :      0.00634      -0.01152       0.00000
                        -----------------------------------------
Total Dipole Moment    :      0.01697      -0.00647      -0.00000
                        -----------------------------------------
Magnitude (a.u.)       :      0.01817
Magnitude (Debye)      :      0.04617

Rotational constants in cm-1:     0.033360     0.004804     0.004199
Rotational constants in MHz :  1000.110039   144.011804   125.884889

                             ****ORCA TERMINATED NORMALLY****
TOTAL RUN TIME: 0 days 5 hours 27 minutes 38 seconds 584 msec
