                         Program Version 5.0.4 -  RELEASE  -
|  1> ! RIJCOSX nofrozencore ReducedPop printbasis
|  2> ! M06L ano-rcc-dzp autoaux
|  3>
|  4> %maxcore 5000
|  5> %basis
|  6> PCDTrimBas overlap
|  7> PCDTrimAuxJ Coulomb
|  8> PCDTrimAuxJK Coulomb
|  9> PCDTrimAuxC Coulomb
| 10> PCDThresh -1
| 11> end
| 12>
| 13> %basis
| 14> newgto Cu "ano-rcc-tzp" end
| 15> newgto S "ano-rcc-tzp" end
| 16> end
| 17>
| 18> %pal
| 19> nprocs 8
| 20> end
| 21>
| 22> % sym SymThresh 1e-2 end
| 23> * xyz -2 2
| 24> Cu 1.4009379379347003e-05 8.349205655562618e-06 -4.1881118112183304e-05
| 25> S 0.14628270655764092 -0.9280442375474407 2.120541517018981
| 26> C 1.642917357271648 -1.7916937965778648 2.069577711257285
| 27> S -2.031711280181535 0.9992093858829066 0.5055914334861837
| 28> C -2.4285331943853854 1.8151260440238854 -0.9596539928924998
| 29> S 2.0284278339135806 -0.997461121045455 -0.5051105585922792
| 30> C 2.5161126940306184 -1.8620203436859795 0.947489615757097
| 31> S -0.14599257443369495 0.9265693714899528 -2.117257301669293
| 32> C -1.6564920402569625 1.834987324234779 -2.158457055594809
| 33> C -2.0775506283405774 2.5097383439592402 -3.231973153015725
| 34> C -3.6868209640685152 2.572356728654453 -0.9952177525612509
| 35> C -4.082125121635046 3.2616151807406113 -2.1436067047962544
| 36> H -4.496126761702816 2.7504951217080174 -0.23982593037901245
| 37> C -3.262035637373709 3.2236242769118206 -3.2681451909207833
| 38> H -1.2618178833166667 2.3219183358082214 -3.972535195652875
| 39> H -5.007714026742398 3.8322311164246106 -2.204036379018827
| 40> H -3.498740201551863 3.732695082835278 -4.198541200982451
| 41> C 2.060685123124165 -2.5113055482242213 3.2610168338703787
| 42> C 3.6652557980734084 -2.570069336419841 1.0215426781142043
| 43> C 3.254470212449542 -3.2293654672192367 3.2938671095811562
| 44> H 1.5557907231222463 -2.602033297637047 4.240865271904642
| 45> C 4.059928997781317 -3.254036256440501 2.1575384741498995
| 46> H 4.15105799562181 -2.4654831899084346 0.03518640761959325
| 47> H 3.5809022579953513 -3.7730328458693045 4.177918569618151
| 48> H 5.001720671359915 -3.7935956018622496 2.115612203649413
| 49> *
| 50>
| 51> % eprnmr
| 52> gtensor true
| 53> Nuclei = all H {aiso,adip,aorb,fgrad,rho}
| 54> Nuclei = all Cu {aiso,adip,aorb,fgrad,rho}
| 55> end
| 56>
| 57>                          ****END OF INPUT****

CARTESIAN COORDINATES (ANGSTROEM)
---------------------------------
  Cu    -0.000043    0.000012    0.000000
  S      2.287321    0.384086    0.000000
  C      2.396498    2.109335    0.000000
  S      0.319227   -2.297822    0.000000
  C     -1.293620   -2.905157    0.000000
  S     -0.319071    2.294075    0.000000
  C      1.290174    3.005184    0.000000
  S     -2.283772   -0.383418    0.000000
  C     -2.493182   -2.134040    0.000000
  C     -3.689099   -2.729689    0.000000
  C     -1.469396   -4.363600    0.000000
  C     -2.742692   -4.937061    0.000000
  H     -0.748850   -5.222750    0.000000
  C     -3.857451   -4.102862    0.000000
  H     -4.393058   -1.861604    0.000000
  H     -2.908697   -6.013356    0.000000
  H     -4.879900   -4.470852    0.000000
  C      3.718362    2.713133    0.000000
  C      1.495233    4.341334    0.000000
  C      3.884174    4.096722    0.000000
  H      4.712633    2.228697    0.000000
  C      2.755185    4.912810    0.000000
  H      0.491902    4.803036    0.000000
  H      4.866801    4.563758    0.000000
  H      2.813330    5.997463    0.000000

 Total Charge           Charge          ....   -2
 Multiplicity           Mult            ....    2
 Number of Electrons    NEL             ....  175
 Basis Dimension        Dim             ....  475

ORBITAL ENERGIES
----------------
                 SPIN UP ORBITALS
  NO   OCC          E(Eh)            E(eV)    Irrep
   0   1.0000    -318.182537     -8658.1870    1-A'
   1   1.0000     -88.018832     -2395.1142    2-A'
   2   1.0000     -88.017993     -2395.0914    3-A'
   3   1.0000     -88.012870     -2394.9520    4-A'
   4   1.0000     -88.012402     -2394.9392    5-A'
   5   1.0000     -38.027674     -1034.7856    6-A'
   6   1.0000     -33.530808      -912.4197    7-A'
   7   1.0000     -33.529970      -912.3969    8-A'
   8   1.0000     -33.516188      -912.0218    1-A"
   9   1.0000      -9.842833      -267.8371    9-A'
  10   1.0000      -9.840314      -267.7685   10-A'
  11   1.0000      -9.826671      -267.3973   11-A'
  12   1.0000      -9.826314      -267.3876   12-A'
  13   1.0000      -9.825103      -267.3547   13-A'
  14   1.0000      -9.824738      -267.3447   14-A'
  15   1.0000      -9.824732      -267.3446   15-A'
  16   1.0000      -9.823671      -267.3157   16-A'
  17   1.0000      -9.823452      -267.3097   17-A'
  18   1.0000      -9.823070      -267.2993   18-A'
  19   1.0000      -9.812883      -267.0221   19-A'
  20   1.0000      -9.811888      -266.9950   20-A'
  21   1.0000      -7.587696      -206.4717   21-A'
  22   1.0000      -7.586793      -206.4471   22-A'
  23   1.0000      -7.581416      -206.3008   23-A'
  24   1.0000      -7.580932      -206.2876   24-A'
  25   1.0000      -5.510769      -149.9557   25-A'
  26   1.0000      -5.509906      -149.9322   26-A'
  27   1.0000      -5.505558      -149.8138   27-A'
  28   1.0000      -5.504729      -149.7913   28-A'
  29   1.0000      -5.504669      -149.7897   29-A'
  30   1.0000      -5.504271      -149.7788   30-A'
  31   1.0000      -5.503940      -149.7698    2-A"
  32   1.0000      -5.502995      -149.7441    3-A"
  33   1.0000      -5.499388      -149.6460   31-A'
  34   1.0000      -5.498918      -149.6332   32-A'
  35   1.0000      -5.497332      -149.5900    4-A"
  36   1.0000      -5.496805      -149.5757    5-A"
  37   1.0000      -4.025277      -109.5334   33-A'
  38   1.0000      -2.546710       -69.2995   34-A'
  39   1.0000      -2.545198       -69.2584   35-A'
  40   1.0000      -2.517739       -68.5112    6-A"
  41   1.0000      -0.591422       -16.0934   36-A'
  42   1.0000      -0.591158       -16.0862   37-A'
  43   1.0000      -0.506697       -13.7879   38-A'
  44   1.0000      -0.505565       -13.7571   39-A'
  45   1.0000      -0.490829       -13.3561   40-A'
  46   1.0000      -0.490331       -13.3426   41-A'
  47   1.0000      -0.411676       -11.2023   42-A'
  48   1.0000      -0.409154       -11.1336   43-A'
  49   1.0000      -0.387662       -10.5488   44-A'
  50   1.0000      -0.381015       -10.3679   45-A'
  51   1.0000      -0.324268        -8.8238   46-A'
  52   1.0000      -0.321317        -8.7435   47-A'
  53   1.0000      -0.299240        -8.1427   48-A'
  54   1.0000      -0.295929        -8.0526   49-A'
  55   1.0000      -0.232140        -6.3168   50-A'
  56   1.0000      -0.226680        -6.1683   51-A'
  57   1.0000      -0.199392        -5.4257   52-A'
  58   1.0000      -0.196842        -5.3563   53-A'
  59   1.0000      -0.166272        -4.5245   54-A'
  60   1.0000      -0.160865        -4.3773   55-A'
  61   1.0000      -0.144183        -3.9234   56-A'
  62   1.0000      -0.140921        -3.8347   57-A'
  63   1.0000      -0.130274        -3.5449   58-A'
  64   1.0000      -0.118381        -3.2213    7-A"
  65   1.0000      -0.118232        -3.2172    8-A"
  66   1.0000      -0.110966        -3.0195   59-A'
  67   1.0000      -0.081306        -2.2124   60-A'
  68   1.0000      -0.070209        -1.9105   61-A'
  69   1.0000      -0.066289        -1.8038   62-A'
  70   1.0000      -0.057758        -1.5717   63-A'
  71   1.0000      -0.039852        -1.0844    9-A"
  72   1.0000      -0.038344        -1.0434   10-A"
  73   1.0000      -0.033012        -0.8983   64-A'
  74   1.0000      -0.029338        -0.7983   65-A'
  75   1.0000      -0.027523        -0.7489   11-A"
  76   1.0000      -0.020648        -0.5619   12-A"
  77   1.0000      -0.003847        -0.1047   13-A"
  78   1.0000      -0.001492        -0.0406   66-A'
  79   1.0000       0.000522         0.0142   14-A"
  80   1.0000       0.017306         0.4709   67-A'
  81   1.0000       0.018522         0.5040   68-A'
  82   1.0000       0.033862         0.9214   69-A'
  83   1.0000       0.049610         1.3500   15-A"
  84   1.0000       0.051623         1.4047   16-A"
  85   1.0000       0.061947         1.6857   17-A"
  86   1.0000       0.086883         2.3642   18-A"
  87   1.0000       0.104050         2.8314   70-A'
  88   0.0000       0.180920         4.9231   71-A'
  89   0.0000       0.181020         4.9258   72-A'
  90   0.0000       0.196702         5.3525   19-A"
  91   0.0000       0.196717         5.3530   73-A'
  92   0.0000       0.197012         5.3610   74-A'

                 SPIN DOWN ORBITALS
  NO   OCC          E(Eh)            E(eV)    Irrep
   0   1.0000    -318.182362     -8658.1823    1-A'
   1   1.0000     -88.017736     -2395.0844    2-A'
   2   1.0000     -88.016898     -2395.0616    3-A'
   3   1.0000     -88.011823     -2394.9235    4-A'
   4   1.0000     -88.011365     -2394.9110    5-A'
   5   1.0000     -38.011802     -1034.3537    6-A'
   6   1.0000     -33.515645      -912.0071    7-A'
   7   1.0000     -33.514839      -911.9851    8-A'
   8   1.0000     -33.511863      -911.9042    1-A"
   9   1.0000      -9.842959      -267.8405    9-A'
  10   1.0000      -9.840437      -267.7719   10-A'
  11   1.0000      -9.826782      -267.4003   11-A'
  12   1.0000      -9.826262      -267.3862   12-A'
  13   1.0000      -9.825212      -267.3576   13-A'
  14   1.0000      -9.824701      -267.3437   14-A'
  15   1.0000      -9.824700      -267.3437   15-A'
  16   1.0000      -9.823621      -267.3143   16-A'
  17   1.0000      -9.823434      -267.3092   17-A'
  18   1.0000      -9.823054      -267.2989   18-A'
  19   1.0000      -9.812805      -267.0200   19-A'
  20   1.0000      -9.811798      -266.9926   20-A'
  21   1.0000      -7.586937      -206.4510   21-A'
  22   1.0000      -7.586037      -206.4266   22-A'
  23   1.0000      -7.580701      -206.2814   23-A'
  24   1.0000      -7.580225      -206.2684   24-A'
  25   1.0000      -5.509821      -149.9298   25-A'
  26   1.0000      -5.508956      -149.9063   26-A'
  27   1.0000      -5.503818      -149.7665   27-A'
  28   1.0000      -5.503369      -149.7543   28-A'
  29   1.0000      -5.503234      -149.7506   29-A'
  30   1.0000      -5.503096      -149.7469    2-A"
  31   1.0000      -5.502356      -149.7267   30-A'
  32   1.0000      -5.502153      -149.7212    3-A"
  33   1.0000      -5.497191      -149.5862   31-A'
  34   1.0000      -5.496750      -149.5742   32-A'
  35   1.0000      -5.496540      -149.5685    4-A"
  36   1.0000      -5.496023      -149.5544    5-A"
  37   1.0000      -3.991538      -108.6153   33-A'
  38   1.0000      -2.506021       -68.1923    6-A"
  39   1.0000      -2.504648       -68.1549   34-A'
  40   1.0000      -2.503113       -68.1132   35-A'
  41   1.0000      -0.591055       -16.0834   36-A'
  42   1.0000      -0.590800       -16.0765   37-A'
  43   1.0000      -0.505533       -13.7563   38-A'
  44   1.0000      -0.504431       -13.7263   39-A'
  45   1.0000      -0.489599       -13.3227   40-A'
  46   1.0000      -0.489076       -13.3084   41-A'
  47   1.0000      -0.408013       -11.1026   42-A'
  48   1.0000      -0.405373       -11.0308   43-A'
  49   1.0000      -0.384293       -10.4572   44-A'
  50   1.0000      -0.377680       -10.2772   45-A'
  51   1.0000      -0.322781        -8.7833   46-A'
  52   1.0000      -0.319528        -8.6948   47-A'
  53   1.0000      -0.297662        -8.0998   48-A'
  54   1.0000      -0.293986        -7.9998   49-A'
  55   1.0000      -0.231552        -6.3008   50-A'
  56   1.0000      -0.225979        -6.1492   51-A'
  57   1.0000      -0.198405        -5.3989   52-A'
  58   1.0000      -0.195844        -5.3292   53-A'
  59   1.0000      -0.165590        -4.5059   54-A'
  60   1.0000      -0.159829        -4.3492   55-A'
  61   1.0000      -0.143361        -3.9010   56-A'
  62   1.0000      -0.139739        -3.8025   57-A'
  63   1.0000      -0.128982        -3.5098   58-A'
  64   1.0000      -0.118206        -3.2166    7-A"
  65   1.0000      -0.118042        -3.2121    8-A"
  66   1.0000      -0.109881        -2.9900   59-A'
  67   1.0000      -0.079640        -2.1671   60-A'
  68   1.0000      -0.068862        -1.8738   61-A'
  69   1.0000      -0.056357        -1.5335   62-A'
  70   1.0000      -0.051940        -1.4134   63-A'
  71   1.0000      -0.037863        -1.0303    9-A"
  72   1.0000      -0.037439        -1.0188   10-A"
  73   1.0000      -0.024401        -0.6640   11-A"
  74   1.0000      -0.022599        -0.6149   64-A'
  75   1.0000      -0.019750        -0.5374   12-A"
  76   1.0000      -0.003850        -0.1048   65-A'
  77   1.0000       0.005906         0.1607   13-A"
  78   1.0000       0.009312         0.2534   66-A'
  79   1.0000       0.012760         0.3472   14-A"
  80   1.0000       0.025259         0.6873   67-A'
  81   1.0000       0.032999         0.8980   68-A'
  82   1.0000       0.042134         1.1465   69-A'
  83   1.0000       0.052427         1.4266   15-A"
  84   1.0000       0.057191         1.5562   16-A"
  85   1.0000       0.063780         1.7355   17-A"
  86   1.0000       0.091028         2.4770   18-A"
  87   0.0000       0.137007         3.7282   70-A'
  88   0.0000       0.182303         4.9607   71-A'
  89   0.0000       0.182500         4.9661   72-A'
  90   0.0000       0.196870         5.3571   19-A"
  91   0.0000       0.198741         5.4080   73-A'

MULLIKEN ATOMIC CHARGES AND SPIN POPULATIONS
--------------------------------------------
   0 Cu:    0.144004    0.375116
   1 S :   -0.403815    0.166188
   2 C :    0.000399   -0.008939
   3 S :   -0.393312    0.166370
   4 C :   -0.004664   -0.009098
   5 S :   -0.442813    0.159859
   6 C :    0.074727   -0.006999
   7 S :   -0.448528    0.158694
   8 C :    0.094526   -0.007557
   9 C :   -0.099226    0.001325
  10 C :   -0.120517   -0.000570
  11 C :   -0.087874    0.000117
  12 H :    0.035451    0.000281
  13 C :   -0.181328   -0.001764
  14 H :    0.070346    0.001847
  15 H :    0.031644    0.001614
  16 H :    0.030619    0.000746
  17 C :   -0.111493   -0.000613
  18 C :   -0.094601   -0.000050
  19 C :   -0.099936   -0.000144
  20 H :    0.045133    0.000549
  21 C :   -0.173372   -0.001586
  22 H :    0.071754    0.002315
  23 H :    0.031608    0.001491
  24 H :    0.031267    0.000807
Sum of atomic charges         :   -2.0000000

LOEWDIN ATOMIC CHARGES AND SPIN POPULATIONS
-------------------------------------------
   0 Cu:   -0.891249    0.442275
   1 S :    0.001973    0.128005
   2 C :   -0.032558    0.005131
   3 S :    0.001106    0.128423
   4 C :   -0.031078    0.005088
   5 S :    0.024266    0.119897
   6 C :   -0.045737    0.004571
   7 S :    0.029470    0.118046
   8 C :   -0.049364    0.004428
   9 C :    0.282979    0.004316
  10 C :    0.313106    0.004142
  11 C :    0.303258    0.000524
  12 H :   -0.417949    0.003437
  13 C :    0.310064   -0.000524
  14 H :   -0.460850    0.010131
  15 H :   -0.411922    0.000590
  16 H :   -0.424994   -0.000148
  17 C :    0.313434    0.004104
  18 C :    0.289545    0.004051
  19 C :    0.306511    0.000326
  20 H :   -0.426909    0.004036
  21 C :    0.311297   -0.000471
  22 H :   -0.457938    0.009201
  23 H :   -0.413069    0.000486
  24 H :   -0.423391   -0.000067

  Mayer bond orders larger than 0.100000
B(  0-Cu,  1-S ) :   0.6951 B(  0-Cu,  3-S ) :   0.6925 B(  0-Cu,  5-S ) :   0.7068
B(  0-Cu,  7-S ) :   0.7071 B(  1-S ,  2-C ) :   1.2076 B(  2-C ,  6-C ) :   1.2431
B(  2-C , 17-C ) :   1.3067 B(  3-S ,  4-C ) :   1.2165 B(  4-C ,  8-C ) :   1.2401
B(  4-C , 10-C ) :   1.3042 B(  5-S ,  6-C ) :   1.1538 B(  6-C , 18-C ) :   1.3300
B(  7-S ,  8-C ) :   1.1436 B(  8-C ,  9-C ) :   1.3360 B(  9-C , 13-C ) :   1.3511
B(  9-C , 14-H ) :   0.9525 B( 10-C , 11-C ) :   1.3692 B( 10-C , 12-H ) :   0.9855
B( 11-C , 13-C ) :   1.3428 B( 11-C , 15-H ) :   0.9848 B( 13-C , 16-H ) :   0.9922
B( 17-C , 19-C ) :   1.3699 B( 17-C , 20-H ) :   0.9825 B( 18-C , 21-C ) :   1.3552
B( 18-C , 22-H ) :   0.9555 B( 19-C , 21-C ) :   1.3405 B( 19-C , 23-H ) :   0.9859
B( 21-C , 24-H ) :   0.9911

FINAL SINGLE POINT ENERGY     -3686.885625788635

DIPOLE MOMENT
-------------
                                X             Y             Z
Electronic contribution:      0.21384      -0.10306       0.00000
Nuclear contribution   :     -0.04289       0.02291       0.00000
                        -----------------------------------------
Total Dipole Moment    :      0.17095      -0.08015       0.00000
                        -----------------------------------------
Magnitude (a.u.)       :      0.18881
Magnitude (Debye)      :      0.47991

Rotational constants in cm-1:     0.033420     0.004803     0.004200
Rotational constants in MHz :  1001.911568   144.001500   125.905510

                             ****ORCA TERMINATED NORMALLY****
TOTAL RUN TIME: 0 days 6 hours 59 minutes 18 seconds 179 msec
