                         Program Version 5.0.4 -  RELEASE  -
|  1> ! RIJCOSX nofrozencore ReducedPop printbasis
|  2> ! M06L ano-rcc-dzp autoaux
|  3>
|  4> %maxcore 5000
|  5> %basis
|  6> PCDTrimBas overlap
|  7> PCDTrimAuxJ Coulomb
|  8> PCDTrimAuxJK Coulomb
|  9> PCDTrimAuxC Coulomb
| 10> PCDThresh -1
| 11> end
| 12>
| 13> %basis
| 14> newgto Cu "ano-rcc-tzp" end
| 15> newgto S "ano-rcc-tzp" end
| 16> end
| 17>
| 18> %pal
| 19> nprocs 8
| 20> end
| 21>
| 22> % sym SymThresh 1e-2 end
| 23> * xyz -2 2
| 24> Cu 1.269855918563843e-05 -1.0900241670113954e-06 -2.7492620690230626e-06
| 25> S -1.5432110058278388 -0.696927578178275 1.5812834499922506
| 26> C -3.0794995032905863 0.0037121353873812643 1.058627335251125
| 27> S 1.7117494530956603 -1.1182400245295487 1.089973715543573
| 28> C 3.147451938264606 -0.8025879333349077 0.11917378455255555
| 29> S -1.7110515569224682 1.1183952966661312 -1.0904483791034185
| 30> C -3.1538514984964485 0.80334130403842 -0.11809509023899681
| 31> S 1.5438821990263376 0.6966171807526045 -1.5810486498039498
| 32> C 3.0731649904048455 -0.0030753210411853388 -1.0573958520036275
| 33> C 4.232133750122847 0.2146537871656903 -1.7853139441968073
| 34> C 4.374279271675141 -1.3296613136324489 0.48777823212545035
| 35> C 5.514256254027406 -1.108713498545008 -0.238416734852502
| 36> H 4.505323505963111 -1.948242770653099 1.3726643002348362
| 37> C 5.440334695792596 -0.30967297247463177 -1.4144027576496752
| 38> H 4.255221051881448 0.8132641933402395 -2.6934337519325755
| 39> H 6.351901444866879 -1.6360066147147427 0.26501118049935174
| 40> H 6.19727457538748 0.01308310819354826 -2.1613192084710486
| 41> C -4.232352827616312 -0.2144329951365252 1.7850576437252628
| 42> C -4.37542701864725 1.3293092188993954 -0.48685214401572807
| 43> C -5.436223555992526 0.306420609289427 1.4178726729592752
| 44> H -4.280960651777815 -0.8096967328660826 2.6969643535725596
| 45> C -5.510357881432449 1.111229682901085 0.23328590836965188
| 46> H -4.537294576740171 1.9518253874003735 -1.3670030259427397
| 47> H -6.15196457265083 -0.057463897617649036 2.2123972363019897
| 48> H -6.311181208803918 1.6719503265202078 -0.33313243708363977
| 49> *
| 50>
| 51> % eprnmr
| 52> gtensor true
| 53> Nuclei = all H {aiso,adip,aorb,fgrad,rho}
| 54> Nuclei = all Cu {aiso,adip,aorb,fgrad,rho}
| 55> end
| 56>
| 57>                          ****END OF INPUT****

CARTESIAN COORDINATES (ANGSTROEM)
---------------------------------
  Cu     0.000000    0.000000    0.000013
  S      0.000000    1.617229   -1.658974
  C      0.000000    0.712322   -3.177680
  S      0.000000    1.616806    1.659673
  C      0.000000    0.712225    3.171176
  S      0.000000   -1.617229   -1.658974
  C      0.000000   -0.712322   -3.177680
  S      0.000000   -1.616806    1.659673
  C      0.000000   -0.712225    3.171176
  C      0.000000   -1.375869    4.387402
  C      0.000000    1.375869    4.387402
  C      0.000000    0.711842    5.584503
  H      0.000000    2.460772    4.465975
  C      0.000000   -0.711842    5.584503
  H      0.000000   -2.460772    4.465975
  H      0.000000    1.468884    6.397493
  H      0.000000   -1.468884    6.397493
  C      0.000000    1.375244   -4.388114
  C      0.000000   -1.375244   -4.388114
  C      0.000000    0.717018   -5.580406
  H      0.000000    2.460058   -4.495411
  C      0.000000   -0.717018   -5.580406
  H      0.000000   -2.460058   -4.495411
  H      0.000000    1.540774   -6.353507
  H      0.000000   -1.540774   -6.353507

 Total Charge           Charge          ....   -2
 Multiplicity           Mult            ....    2
 Number of Electrons    NEL             ....  175
 Basis Dimension        Dim             ....  475

ORBITAL ENERGIES
----------------
                 SPIN UP ORBITALS
  NO   OCC          E(Eh)            E(eV)    Irrep
   0   1.0000    -318.180093     -8658.1205    1-A1
   1   1.0000     -88.014276     -2394.9902    1-B2
   2   1.0000     -88.014268     -2394.9900    2-A1
   3   1.0000     -88.013946     -2394.9812    2-B2
   4   1.0000     -88.013935     -2394.9809    3-A1
   5   1.0000     -38.025304     -1034.7211    4-A1
   6   1.0000     -33.528466      -912.3560    3-B2
   7   1.0000     -33.527567      -912.3315    5-A1
   8   1.0000     -33.513825      -911.9575    1-B1
   9   1.0000      -9.833690      -267.5883    6-A1
  10   1.0000      -9.833397      -267.5803    4-B2
  11   1.0000      -9.832552      -267.5573    7-A1
  12   1.0000      -9.832227      -267.5485    5-B2
  13   1.0000      -9.832214      -267.5481    8-A1
  14   1.0000      -9.831887      -267.5393    6-B2
  15   1.0000      -9.830118      -267.4911    9-A1
  16   1.0000      -9.829794      -267.4823    7-B2
  17   1.0000      -9.815017      -267.0802    8-B2
  18   1.0000      -9.815012      -267.0801   10-A1
  19   1.0000      -9.814760      -267.0732    9-B2
  20   1.0000      -9.814755      -267.0731   11-A1
  21   1.0000      -7.582425      -206.3283   10-B2
  22   1.0000      -7.582416      -206.3280   12-A1
  23   1.0000      -7.582237      -206.3232   11-B2
  24   1.0000      -7.582228      -206.3229   13-A1
  25   1.0000      -5.505785      -149.8200   12-B2
  26   1.0000      -5.505785      -149.8200   14-A1
  27   1.0000      -5.505559      -149.8139   13-B2
  28   1.0000      -5.505558      -149.8138   15-A1
  29   1.0000      -5.500324      -149.6714   14-B2
  30   1.0000      -5.500324      -149.6714   16-A1
  31   1.0000      -5.500135      -149.6663   15-B2
  32   1.0000      -5.500135      -149.6663   17-A1
  33   1.0000      -5.498474      -149.6211    1-A2
  34   1.0000      -5.498474      -149.6211    2-B1
  35   1.0000      -5.498291      -149.6161    2-A2
  36   1.0000      -5.498290      -149.6161    3-B1
  37   1.0000      -4.022906      -109.4688   18-A1
  38   1.0000      -2.544394       -69.2365   16-B2
  39   1.0000      -2.542737       -69.1914   19-A1
  40   1.0000      -2.515401       -68.4476    4-B1
  41   1.0000      -0.596408       -16.2291   20-A1
  42   1.0000      -0.594067       -16.1654   21-A1
  43   1.0000      -0.501873       -13.6567   17-B2
  44   1.0000      -0.500088       -13.6081   22-A1
  45   1.0000      -0.498757       -13.5719   23-A1
  46   1.0000      -0.498224       -13.5574   18-B2
  47   1.0000      -0.413240       -11.2448   19-B2
  48   1.0000      -0.410524       -11.1709   20-B2
  49   1.0000      -0.380926       -10.3655   24-A1
  50   1.0000      -0.372962       -10.1488   25-A1
  51   1.0000      -0.323825        -8.8117   26-A1
  52   1.0000      -0.321862        -8.7583   27-A1
  53   1.0000      -0.306234        -8.3330   21-B2
  54   1.0000      -0.302052        -8.2193   22-B2
  55   1.0000      -0.231938        -6.3114   28-A1
  56   1.0000      -0.227529        -6.1914   29-A1
  57   1.0000      -0.190630        -5.1873   30-A1
  58   1.0000      -0.186739        -5.0814   31-A1
  59   1.0000      -0.177435        -4.8282   23-B2
  60   1.0000      -0.176217        -4.7951   24-B2
  61   1.0000      -0.142667        -3.8822   25-B2
  62   1.0000      -0.136966        -3.7270   26-B2
  63   1.0000      -0.128640        -3.5005   32-A1
  64   1.0000      -0.121563        -3.3079    5-B1
  65   1.0000      -0.119948        -3.2639    6-B1
  66   1.0000      -0.116505        -3.1703   33-A1
  67   1.0000      -0.088215        -2.4005   34-A1
  68   1.0000      -0.063476        -1.7273   27-B2
  69   1.0000      -0.060970        -1.6591   28-B2
  70   1.0000      -0.060483        -1.6458   35-A1
  71   1.0000      -0.036188        -0.9847    7-B1
  72   1.0000      -0.034465        -0.9378    8-B1
  73   1.0000      -0.029323        -0.7979    3-A2
  74   1.0000      -0.029035        -0.7901   36-A1
  75   1.0000      -0.028006        -0.7621   29-B2
  76   1.0000      -0.024717        -0.6726    4-A2
  77   1.0000      -0.004979        -0.1355    5-A2
  78   1.0000       0.000548         0.0149   37-A1
  79   1.0000       0.002798         0.0761    9-B1
  80   1.0000       0.019215         0.5229   38-A1
  81   1.0000       0.019497         0.5306   39-A1
  82   1.0000       0.036487         0.9929   30-B2
  83   1.0000       0.048804         1.3280    6-A2
  84   1.0000       0.051555         1.4029    7-A2
  85   1.0000       0.062603         1.7035   10-B1
  86   1.0000       0.087989         2.3943   11-B1
  87   1.0000       0.106694         2.9033   31-B2
  88   0.0000       0.181624         4.9422   40-A1
  89   0.0000       0.181927         4.9505   41-A1
  90   0.0000       0.192211         5.2303   32-B2
  91   0.0000       0.193415         5.2631   33-B2
  92   0.0000       0.201414         5.4808    8-A2

                 SPIN DOWN ORBITALS
  NO   OCC          E(Eh)            E(eV)    Irrep
   0   1.0000    -318.179921     -8658.1158    1-A1
   1   1.0000     -88.013204     -2394.9610    1-B2
   2   1.0000     -88.013196     -2394.9608    2-A1
   3   1.0000     -88.012876     -2394.9521    2-B2
   4   1.0000     -88.012865     -2394.9518    3-A1
   5   1.0000     -38.009476     -1034.2904    4-A1
   6   1.0000     -33.513342      -911.9444    3-B2
   7   1.0000     -33.512479      -911.9209    5-A1
   8   1.0000     -33.509516      -911.8403    1-B1
   9   1.0000      -9.833670      -267.5878    6-A1
  10   1.0000      -9.833377      -267.5798    4-B2
  11   1.0000      -9.832669      -267.5605    7-A1
  12   1.0000      -9.832343      -267.5517    5-B2
  13   1.0000      -9.832329      -267.5513    8-A1
  14   1.0000      -9.832003      -267.5424    6-B2
  15   1.0000      -9.830097      -267.4905    9-A1
  16   1.0000      -9.829773      -267.4817    7-B2
  17   1.0000      -9.814967      -267.0788    8-B2
  18   1.0000      -9.814962      -267.0787   10-A1
  19   1.0000      -9.814708      -267.0718    9-B2
  20   1.0000      -9.814703      -267.0716   11-A1
  21   1.0000      -7.581689      -206.3082   10-B2
  22   1.0000      -7.581681      -206.3080   12-A1
  23   1.0000      -7.581503      -206.3032   11-B2
  24   1.0000      -7.581494      -206.3029   13-A1
  25   1.0000      -5.504859      -149.7948   12-B2
  26   1.0000      -5.504859      -149.7948   14-A1
  27   1.0000      -5.504633      -149.7887   13-B2
  28   1.0000      -5.504632      -149.7887   15-A1
  29   1.0000      -5.498066      -149.6100   14-B2
  30   1.0000      -5.498066      -149.6100   16-A1
  31   1.0000      -5.497883      -149.6050   15-B2
  32   1.0000      -5.497882      -149.6050   17-A1
  33   1.0000      -5.497656      -149.5988    1-A2
  34   1.0000      -5.497656      -149.5988    2-B1
  35   1.0000      -5.497475      -149.5939    2-A2
  36   1.0000      -5.497474      -149.5939    3-B1
  37   1.0000      -3.989298      -108.5543   18-A1
  38   1.0000      -2.503729       -68.1299    4-B1
  39   1.0000      -2.502479       -68.0959   16-B2
  40   1.0000      -2.500803       -68.0503   19-A1
  41   1.0000      -0.596114       -16.2211   20-A1
  42   1.0000      -0.593757       -16.1570   21-A1
  43   1.0000      -0.501231       -13.6392   17-B2
  44   1.0000      -0.498752       -13.5717   22-A1
  45   1.0000      -0.497503       -13.5377   18-B2
  46   1.0000      -0.497488       -13.5373   23-A1
  47   1.0000      -0.409206       -11.1351   19-B2
  48   1.0000      -0.406449       -11.0600   20-B2
  49   1.0000      -0.377342       -10.2680   24-A1
  50   1.0000      -0.369348       -10.0505   25-A1
  51   1.0000      -0.323070        -8.7912   26-A1
  52   1.0000      -0.320837        -8.7304   27-A1
  53   1.0000      -0.304046        -8.2735   21-B2
  54   1.0000      -0.299402        -8.1471   22-B2
  55   1.0000      -0.231312        -6.2943   28-A1
  56   1.0000      -0.226718        -6.1693   29-A1
  57   1.0000      -0.189630        -5.1601   30-A1
  58   1.0000      -0.185891        -5.0584   31-A1
  59   1.0000      -0.177124        -4.8198   23-B2
  60   1.0000      -0.175793        -4.7836   24-B2
  61   1.0000      -0.141738        -3.8569   25-B2
  62   1.0000      -0.134800        -3.6681   26-B2
  63   1.0000      -0.127644        -3.4734   32-A1
  64   1.0000      -0.121457        -3.3050    5-B1
  65   1.0000      -0.119823        -3.2606    6-B1
  66   1.0000      -0.115770        -3.1503   33-A1
  67   1.0000      -0.086677        -2.3586   34-A1
  68   1.0000      -0.061855        -1.6832   27-B2
  69   1.0000      -0.058750        -1.5987   35-A1
  70   1.0000      -0.045405        -1.2355   28-B2
  71   1.0000      -0.034124        -0.9286    7-B1
  72   1.0000      -0.033515        -0.9120    8-B1
  73   1.0000      -0.027538        -0.7493    3-A2
  74   1.0000      -0.024024        -0.6537    4-A2
  75   1.0000      -0.022188        -0.6038   36-A1
  76   1.0000      -0.000852        -0.0232   29-B2
  77   1.0000       0.005386         0.1466    5-A2
  78   1.0000       0.011311         0.3078   37-A1
  79   1.0000       0.014874         0.4047    9-B1
  80   1.0000       0.026131         0.7111   38-A1
  81   1.0000       0.035328         0.9613   39-A1
  82   1.0000       0.044746         1.2176   30-B2
  83   1.0000       0.051883         1.4118    6-A2
  84   1.0000       0.057569         1.5665    7-A2
  85   1.0000       0.064465         1.7542   10-B1
  86   1.0000       0.092248         2.5102   11-B1
  87   0.0000       0.139573         3.7980   31-B2
  88   0.0000       0.183105         4.9825   40-A1
  89   0.0000       0.183395         4.9904   41-A1
  90   0.0000       0.194731         5.2989   32-B2
  91   0.0000       0.195906         5.3309   33-B2

MULLIKEN ATOMIC CHARGES AND SPIN POPULATIONS
--------------------------------------------
   0 Cu:    0.146065    0.374814
   1 S :   -0.435017    0.164011
   2 C :   -0.006947   -0.008336
   3 S :   -0.432871    0.163587
   4 C :    0.000418   -0.008099
   5 S :   -0.435017    0.164011
   6 C :   -0.006947   -0.008336
   7 S :   -0.432871    0.163587
   8 C :    0.000418   -0.008099
   9 C :   -0.010603   -0.001142
  10 C :   -0.010603   -0.001142
  11 C :   -0.167327   -0.001299
  12 H :    0.055964    0.001631
  13 C :   -0.167327   -0.001299
  14 H :    0.055964    0.001631
  15 H :    0.018011    0.001482
  16 H :    0.018011    0.001482
  17 C :    0.015866   -0.000964
  18 C :    0.015866   -0.000964
  19 C :   -0.170154   -0.001447
  20 H :    0.052642    0.001510
  21 C :   -0.170154   -0.001447
  22 H :    0.052642    0.001510
  23 H :    0.006985    0.001661
  24 H :    0.006985    0.001661
Sum of atomic charges         :   -2.0000000

LOEWDIN ATOMIC CHARGES AND SPIN POPULATIONS
-------------------------------------------
   0 Cu:   -0.910117    0.441239
   1 S :   -0.001164    0.125884
   2 C :   -0.031253    0.004591
   3 S :    0.000453    0.125298
   4 C :   -0.033052    0.004727
   5 S :   -0.001164    0.125884
   6 C :   -0.031253    0.004591
   7 S :    0.000453    0.125298
   8 C :   -0.033052    0.004727
   9 C :    0.288679    0.003906
  10 C :    0.288679    0.003906
  11 C :    0.311124   -0.000208
  12 H :   -0.431738    0.005600
  13 C :    0.311124   -0.000208
  14 H :   -0.431738    0.005600
  15 H :   -0.408719    0.000225
  16 H :   -0.408719    0.000225
  17 C :    0.281218    0.003910
  18 C :    0.281218    0.003910
  19 C :    0.307418   -0.000236
  20 H :   -0.427966    0.005424
  21 C :    0.307418   -0.000236
  22 H :   -0.427966    0.005424
  23 H :   -0.399940    0.000260
  24 H :   -0.399940    0.000260

  Mayer bond orders larger than 0.100000
B(  0-Cu,  1-S ) :   0.7021 B(  0-Cu,  3-S ) :   0.7017 B(  0-Cu,  5-S ) :   0.7021
B(  0-Cu,  7-S ) :   0.7017 B(  1-S ,  2-C ) :   1.1698 B(  2-C ,  6-C ) :   1.2661
B(  2-C , 17-C ) :   1.3029 B(  3-S ,  4-C ) :   1.1734 B(  4-C ,  8-C ) :   1.2606
B(  4-C , 10-C ) :   1.3063 B(  5-S ,  6-C ) :   1.1698 B(  6-C , 18-C ) :   1.3029
B(  7-S ,  8-C ) :   1.1734 B(  8-C ,  9-C ) :   1.3063 B(  9-C , 13-C ) :   1.3677
B(  9-C , 14-H ) :   0.9711 B( 10-C , 11-C ) :   1.3677 B( 10-C , 12-H ) :   0.9711
B( 11-C , 13-C ) :   1.3306 B( 11-C , 15-H ) :   0.9921 B( 13-C , 16-H ) :   0.9921
B( 17-C , 19-C ) :   1.3673 B( 17-C , 20-H ) :   0.9712 B( 18-C , 21-C ) :   1.3673
B( 18-C , 22-H ) :   0.9712 B( 19-C , 21-C ) :   1.3254 B( 19-C , 23-H ) :   0.9943
B( 21-C , 24-H ) :   0.9943

FINAL SINGLE POINT ENERGY     -3686.884581934250

DIPOLE MOMENT
-------------
                                X             Y             Z
Electronic contribution:     -0.00000       0.00000      -0.01202
Nuclear contribution   :      0.00000       0.00000       0.02719
                        -----------------------------------------
Total Dipole Moment    :     -0.00000       0.00000       0.01517
                        -----------------------------------------
Magnitude (a.u.)       :      0.01517
Magnitude (Debye)      :      0.03856

Rotational constants in cm-1:     0.033141     0.004811     0.004201
Rotational constants in MHz :   993.545808   144.218316   125.937794

                             ****ORCA TERMINATED NORMALLY****
TOTAL RUN TIME: 0 days 6 hours 37 minutes 10 seconds 516 msec
