                         Program Version 5.0.4 -  RELEASE  -
|  1> ! RIJCOSX nofrozencore ReducedPop printbasis
|  2> ! M06L ano-rcc-dzp autoaux
|  3>
|  4> %maxcore 5000
|  5> %basis
|  6> PCDTrimBas overlap
|  7> PCDTrimAuxJ Coulomb
|  8> PCDTrimAuxJK Coulomb
|  9> PCDTrimAuxC Coulomb
| 10> PCDThresh -1
| 11> end
| 12>
| 13> %basis
| 14> newgto Cu "ano-rcc-tzp" end
| 15> newgto S "ano-rcc-tzp" end
| 16> end
| 17>
| 18> %pal
| 19> nprocs 12
| 20> end
| 21>
| 22> % sym SymThresh 1e-2 end
| 23> * xyz -2 2
| 24> Cu 1.858777436683389e-06 -1.8628946650686695e-05 1.620207681523408e-05
| 25> S 2.1405578711308473 0.6242378668228508 0.6295704163072094
| 26> C 2.6087391015278367 -0.4872554445805043 1.7864295588529064
| 27> S -0.14565148079871545 1.7528052991395338 -1.5088959388325993
| 28> C -1.6838426383519058 1.6075378578959332 -2.208986089335885
| 29> S 0.146927248211668 -1.7521068892460012 1.5090046454499892
| 30> C 1.6605016437901086 -1.6164026518360142 2.2038017502973926
| 31> S -2.1408250451274897 -0.6255012643823353 -0.6286809098922771
| 32> C -2.608281250110246 0.5073636846830252 -1.8026066029914005
| 33> C -3.9174189941775426 0.5067068723414759 -2.4988722824183975
| 34> C -2.2207922516057508 2.524460969433434 -3.2435584863062155
| 35> C -3.399736675898459 2.3946271168798456 -3.7650392022691634
| 36> H -1.3464196094355112 3.22267856627273 -3.3483413358007366
| 37> C -4.250744611921418 1.370635611152571 -3.3817875802839032
| 38> H -4.37799906737907 -0.3944191001118043 -2.0081455520033877
| 39> H -3.6231955091145465 3.1537756097489664 -4.50391139289637
| 40> H -5.236816357235706 1.244974496610847 -3.8040173577214556
| 41> C 3.945713185556124 -0.5250983345618431 2.5289509465614244
| 42> C 2.257104562563044 -2.53541121747618 3.271828251617289
| 43> C 4.238527201575567 -1.366165595772537 3.371634445155118
| 44> H 4.2968369166478615 0.4291871210693794 1.936553988084317
| 45> C 3.3837604116832765 -2.3891436686060015 3.752057791453895
| 46> H 1.2737813123652666 -3.1785764984517546 3.2736643349728456
| 47> H 5.228857106813176 -1.2078623219089064 3.7694745143149815
| 48> H 3.5915424436725973 -3.153563030167039 4.4868901266964345
| 49> *
| 50>
| 51> % eprnmr
| 52> gtensor true
| 53> Nuclei = all H {aiso,adip,aorb,fgrad,rho}
| 54> Nuclei = all Cu {aiso,adip,aorb,fgrad,rho}
| 55> end
| 56>
| 57>                          ****END OF INPUT****

CARTESIAN COORDINATES (ANGSTROEM)
---------------------------------
  Cu     0.000006   -0.000024    0.000000
  S      2.276207    0.432319    0.000000
  C      3.016235   -1.066111    0.000000
  S     -0.503253    2.262088    0.000000
  C     -2.197777    2.338568    0.000000
  S      0.504546   -2.261414    0.000000
  C      2.173356   -2.345909    0.000000
  S     -2.276261   -0.433886    0.000000
  C     -3.019624    1.091699    0.000000
  C     -4.485679    1.313761    0.000000
  C     -2.977067    3.600356    0.000000
  C     -4.272244    3.635368    0.000000
  H     -2.133292    4.342690    0.000000
  C     -5.026635    2.473237    0.000000
  H     -4.826649    0.241980    0.000000
  H     -4.669820    4.642396    0.000000
  H     -6.106612    2.480736    0.000000
  C      4.520936   -1.342053    0.000000
  C      3.019860   -3.620516    0.000000
  C      5.012084   -2.465451    0.000000
  H      4.729004   -0.183783    0.000000
  C      4.253287   -3.625649    0.000000
  H      2.043382   -4.274030    0.000000
  H      6.090496   -2.432010    0.000000
  H      4.634329   -4.636736    0.000000

 Total Charge           Charge          ....   -2
 Multiplicity           Mult            ....    2
 Number of Electrons    NEL             ....  175
 Basis Dimension        Dim             ....  475

ORBITAL ENERGIES
----------------
                 SPIN UP ORBITALS
  NO   OCC          E(Eh)            E(eV)    Irrep
   0   1.0000    -318.190574     -8658.4057    1-A'
   1   1.0000     -88.019550     -2395.1337    2-A'
   2   1.0000     -88.019148     -2395.1228    3-A'
   3   1.0000     -88.018661     -2395.1095    4-A'
   4   1.0000     -88.018530     -2395.1060    5-A'
   5   1.0000     -38.035652     -1035.0027    6-A'
   6   1.0000     -33.538983      -912.6421    7-A'
   7   1.0000     -33.537924      -912.6133    8-A'
   8   1.0000     -33.523984      -912.2340    1-A"
   9   1.0000      -9.831336      -267.5243    9-A'
  10   1.0000      -9.830954      -267.5139   10-A'
  11   1.0000      -9.826978      -267.4057   11-A'
  12   1.0000      -9.826809      -267.4011   12-A'
  13   1.0000      -9.816931      -267.1323   13-A'
  14   1.0000      -9.815943      -267.1054   14-A'
  15   1.0000      -9.815302      -267.0880   15-A'
  16   1.0000      -9.814613      -267.0692   16-A'
  17   1.0000      -9.814314      -267.0611   17-A'
  18   1.0000      -9.814142      -267.0564   18-A'
  19   1.0000      -9.810138      -266.9474   19-A'
  20   1.0000      -9.809396      -266.9272   20-A'
  21   1.0000      -7.588879      -206.5039   21-A'
  22   1.0000      -7.588524      -206.4942   22-A'
  23   1.0000      -7.588489      -206.4933   23-A'
  24   1.0000      -7.588376      -206.4902   24-A'
  25   1.0000      -5.511636      -149.9792   25-A'
  26   1.0000      -5.511252      -149.9688   26-A'
  27   1.0000      -5.511007      -149.9621   27-A'
  28   1.0000      -5.510878      -149.9586   28-A'
  29   1.0000      -5.506865      -149.8494   29-A'
  30   1.0000      -5.506546      -149.8407   30-A'
  31   1.0000      -5.506407      -149.8369   31-A'
  32   1.0000      -5.506316      -149.8345   32-A'
  33   1.0000      -5.505143      -149.8026    2-A"
  34   1.0000      -5.504889      -149.7956    3-A"
  35   1.0000      -5.504775      -149.7925    4-A"
  36   1.0000      -5.504770      -149.7924    5-A"
  37   1.0000      -4.033097      -109.7461   33-A'
  38   1.0000      -2.554902       -69.5224   34-A'
  39   1.0000      -2.553004       -69.4708   35-A'
  40   1.0000      -2.525121       -68.7120    6-A"
  41   1.0000      -0.596596       -16.2342   36-A'
  42   1.0000      -0.592862       -16.1326   37-A'
  43   1.0000      -0.508569       -13.8389   38-A'
  44   1.0000      -0.506576       -13.7846   39-A'
  45   1.0000      -0.501536       -13.6475   40-A'
  46   1.0000      -0.496320       -13.5056   41-A'
  47   1.0000      -0.437238       -11.8979   42-A'
  48   1.0000      -0.427995       -11.6463   43-A'
  49   1.0000      -0.380374       -10.3505   44-A'
  50   1.0000      -0.370412       -10.0794   45-A'
  51   1.0000      -0.306096        -8.3293   46-A'
  52   1.0000      -0.303455        -8.2574   47-A'
  53   1.0000      -0.299694        -8.1551   48-A'
  54   1.0000      -0.295084        -8.0296   49-A'
  55   1.0000      -0.240785        -6.5521   50-A'
  56   1.0000      -0.235313        -6.4032   51-A'
  57   1.0000      -0.206794        -5.6272   52-A'
  58   1.0000      -0.199811        -5.4371   53-A'
  59   1.0000      -0.160468        -4.3665   54-A'
  60   1.0000      -0.157038        -4.2732   55-A'
  61   1.0000      -0.153636        -4.1807   56-A'
  62   1.0000      -0.139359        -3.7922   57-A'
  63   1.0000      -0.125138        -3.4052   58-A'
  64   1.0000      -0.121750        -3.3130    7-A"
  65   1.0000      -0.119198        -3.2435    8-A"
  66   1.0000      -0.093058        -2.5322   59-A'
  67   1.0000      -0.074513        -2.0276   60-A'
  68   1.0000      -0.067851        -1.8463   61-A'
  69   1.0000      -0.057504        -1.5648   62-A'
  70   1.0000      -0.054798        -1.4911   63-A'
  71   1.0000      -0.047234        -1.2853    9-A"
  72   1.0000      -0.044752        -1.2178   10-A"
  73   1.0000      -0.034125        -0.9286   64-A'
  74   1.0000      -0.033295        -0.9060   11-A"
  75   1.0000      -0.025880        -0.7042   12-A"
  76   1.0000      -0.021585        -0.5874   65-A'
  77   1.0000      -0.011794        -0.3209   13-A"
  78   1.0000      -0.004995        -0.1359   66-A'
  79   1.0000      -0.002935        -0.0799   14-A"
  80   1.0000       0.016994         0.4624   67-A'
  81   1.0000       0.026273         0.7149   68-A'
  82   1.0000       0.029104         0.7920   69-A'
  83   1.0000       0.031977         0.8701   15-A"
  84   1.0000       0.038531         1.0485   16-A"
  85   1.0000       0.076260         2.0752   17-A"
  86   1.0000       0.093631         2.5478   70-A'
  87   1.0000       0.101156         2.7526   18-A"
  88   0.0000       0.181779         4.9465   71-A'
  89   0.0000       0.182626         4.9695   72-A'
  90   0.0000       0.198358         5.3976   73-A'
  91   0.0000       0.199936         5.4405   74-A'
  92   0.0000       0.208608         5.6765   19-A"

                 SPIN DOWN ORBITALS
  NO   OCC          E(Eh)            E(eV)    Irrep
   0   1.0000    -318.190399     -8658.4009    1-A'
   1   1.0000     -88.018495     -2395.1050    2-A'
   2   1.0000     -88.018089     -2395.0940    3-A'
   3   1.0000     -88.017670     -2395.0826    4-A'
   4   1.0000     -88.017538     -2395.0790    5-A'
   5   1.0000     -38.019619     -1034.5664    6-A'
   6   1.0000     -33.523663      -912.2252    7-A'
   7   1.0000     -33.522647      -912.1976    8-A'
   8   1.0000     -33.519626      -912.1154    1-A"
   9   1.0000      -9.831448      -267.5273    9-A'
  10   1.0000      -9.831067      -267.5169   10-A'
  11   1.0000      -9.827078      -267.4084   11-A'
  12   1.0000      -9.826908      -267.4038   12-A'
  13   1.0000      -9.816901      -267.1315   13-A'
  14   1.0000      -9.815908      -267.1044   14-A'
  15   1.0000      -9.815215      -267.0856   15-A'
  16   1.0000      -9.814486      -267.0657   16-A'
  17   1.0000      -9.814230      -267.0588   17-A'
  18   1.0000      -9.814014      -267.0529   18-A'
  19   1.0000      -9.810106      -266.9466   19-A'
  20   1.0000      -9.809364      -266.9264   20-A'
  21   1.0000      -7.588160      -206.4843   21-A'
  22   1.0000      -7.587820      -206.4751   22-A'
  23   1.0000      -7.587803      -206.4746   23-A'
  24   1.0000      -7.587707      -206.4720   24-A'
  25   1.0000      -5.510702      -149.9538   25-A'
  26   1.0000      -5.510315      -149.9433   26-A'
  27   1.0000      -5.510115      -149.9378   27-A'
  28   1.0000      -5.509985      -149.9343   28-A'
  29   1.0000      -5.504679      -149.7899   29-A'
  30   1.0000      -5.504389      -149.7820   30-A'
  31   1.0000      -5.504353      -149.7810   31-A'
  32   1.0000      -5.504342      -149.7808    2-A"
  33   1.0000      -5.504297      -149.7795   32-A'
  34   1.0000      -5.504136      -149.7751    3-A"
  35   1.0000      -5.504017      -149.7719    4-A"
  36   1.0000      -5.503972      -149.7707    5-A"
  37   1.0000      -3.998749      -108.8115   33-A'
  38   1.0000      -2.513282       -68.3899    6-A"
  39   1.0000      -2.512112       -68.3580   34-A'
  40   1.0000      -2.510188       -68.3057   35-A'
  41   1.0000      -0.596330       -16.2270   36-A'
  42   1.0000      -0.592569       -16.1246   37-A'
  43   1.0000      -0.506328       -13.7779   38-A'
  44   1.0000      -0.504248       -13.7213   39-A'
  45   1.0000      -0.500744       -13.6259   40-A'
  46   1.0000      -0.495377       -13.4799   41-A'
  47   1.0000      -0.433086       -11.7849   42-A'
  48   1.0000      -0.423776       -11.5315   43-A'
  49   1.0000      -0.377738       -10.2788   44-A'
  50   1.0000      -0.368071       -10.0157   45-A'
  51   1.0000      -0.304813        -8.2944   46-A'
  52   1.0000      -0.301653        -8.2084   47-A'
  53   1.0000      -0.297556        -8.0969   48-A'
  54   1.0000      -0.293898        -7.9974   49-A'
  55   1.0000      -0.240177        -6.5356   50-A'
  56   1.0000      -0.234543        -6.3822   51-A'
  57   1.0000      -0.205776        -5.5994   52-A'
  58   1.0000      -0.198887        -5.4120   53-A'
  59   1.0000      -0.159728        -4.3464   54-A'
  60   1.0000      -0.156466        -4.2577   55-A'
  61   1.0000      -0.152300        -4.1443   56-A'
  62   1.0000      -0.136218        -3.7067   57-A'
  63   1.0000      -0.123370        -3.3571   58-A'
  64   1.0000      -0.121627        -3.3096    7-A"
  65   1.0000      -0.119049        -3.2395    8-A"
  66   1.0000      -0.091423        -2.4877   59-A'
  67   1.0000      -0.071610        -1.9486   60-A'
  68   1.0000      -0.061040        -1.6610   61-A'
  69   1.0000      -0.051817        -1.4100   62-A'
  70   1.0000      -0.045700        -1.2436   63-A'
  71   1.0000      -0.044418        -1.2087    9-A"
  72   1.0000      -0.043226        -1.1762   10-A"
  73   1.0000      -0.030062        -0.8180   11-A"
  74   1.0000      -0.024838        -0.6759   12-A"
  75   1.0000      -0.013898        -0.3782   64-A'
  76   1.0000      -0.009738        -0.2650   65-A'
  77   1.0000      -0.002849        -0.0775   13-A"
  78   1.0000       0.007528         0.2048   66-A'
  79   1.0000       0.009710         0.2642   14-A"
  80   1.0000       0.028538         0.7766   67-A'
  81   1.0000       0.034189         0.9303   68-A'
  82   1.0000       0.034715         0.9446   69-A'
  83   1.0000       0.035309         0.9608   15-A"
  84   1.0000       0.043974         1.1966   16-A"
  85   1.0000       0.077783         2.1166   17-A"
  86   1.0000       0.104203         2.8355   18-A"
  87   0.0000       0.127105         3.4587   70-A'
  88   0.0000       0.182319         4.9612   71-A'
  89   0.0000       0.183069         4.9816   72-A'
  90   0.0000       0.199435         5.4269   73-A'
  91   0.0000       0.200983         5.4690   74-A'

MULLIKEN ATOMIC CHARGES AND SPIN POPULATIONS
--------------------------------------------
   0 Cu:    0.111012    0.380774
   1 S :   -0.355450    0.150938
   2 C :    0.001101   -0.006011
   3 S :   -0.381338    0.162515
   4 C :    0.024829   -0.006908
   5 S :   -0.354671    0.151040
   6 C :    0.000115   -0.005956
   7 S :   -0.382609    0.161693
   8 C :    0.024935   -0.006860
   9 C :   -0.086529    0.001389
  10 C :   -0.080493    0.001406
  11 C :   -0.180126   -0.001352
  12 H :    0.063181    0.002141
  13 C :   -0.169880   -0.001317
  14 H :    0.061093    0.002319
  15 H :    0.028020    0.000995
  16 H :    0.027871    0.000940
  17 C :   -0.058566    0.004201
  18 C :   -0.055793    0.004013
  19 C :   -0.182764   -0.001186
  20 H :    0.044414    0.002328
  21 C :   -0.188279   -0.001223
  22 H :    0.045514    0.002363
  23 H :    0.022134    0.000861
  24 H :    0.022278    0.000896
Sum of atomic charges         :   -2.0000000

LOEWDIN ATOMIC CHARGES AND SPIN POPULATIONS
-------------------------------------------
   0 Cu:   -0.854631    0.446814
   1 S :    0.043907    0.111410
   2 C :   -0.017406    0.007685
   3 S :    0.033711    0.121130
   4 C :   -0.023281    0.006829
   5 S :    0.042993    0.111499
   6 C :   -0.018268    0.007626
   7 S :    0.035148    0.120661
   8 C :   -0.021124    0.006858
   9 C :    0.293097    0.004396
  10 C :    0.298052    0.004445
  11 C :    0.284035   -0.000230
  12 H :   -0.449756    0.009244
  13 C :    0.277306   -0.000236
  14 H :   -0.449085    0.009316
  15 H :   -0.418670    0.000049
  16 H :   -0.418215    0.000046
  17 C :    0.282806    0.005242
  18 C :    0.285229    0.005221
  19 C :    0.259186   -0.000035
  20 H :   -0.444045    0.011102
  21 C :    0.262811   -0.000038
  22 H :   -0.444241    0.011005
  23 H :   -0.419660   -0.000024
  24 H :   -0.419898   -0.000016

  Mayer bond orders larger than 0.100000
B(  0-Cu,  1-S ) :   0.7037 B(  0-Cu,  3-S ) :   0.7090 B(  0-Cu,  5-S ) :   0.7039
B(  0-Cu,  7-S ) :   0.7082 B(  1-S ,  2-C ) :   1.2363 B(  2-C ,  6-C ) :   1.2809
B(  2-C , 17-C ) :   1.1761 B(  3-S ,  4-C ) :   1.2187 B(  4-C ,  8-C ) :   1.2661
B(  4-C , 10-C ) :   1.2361 B(  5-S ,  6-C ) :   1.2359 B(  6-C , 18-C ) :   1.1786
B(  7-S ,  8-C ) :   1.2194 B(  8-C ,  9-C ) :   1.2320 B(  9-C , 13-C ) :   1.4550
B(  9-C , 14-H ) :   0.9456 B( 10-C , 11-C ) :   1.4494 B( 10-C , 12-H ) :   0.9450
B( 11-C , 13-C ) :   1.2724 B( 11-C , 15-H ) :   0.9947 B( 13-C , 16-H ) :   0.9948
B( 17-C , 19-C ) :   1.5118 B( 17-C , 20-H ) :   0.9303 B( 18-C , 21-C ) :   1.5081
B( 18-C , 22-H ) :   0.9305 B( 19-C , 21-C ) :   1.2317 B( 19-C , 23-H ) :   0.9966
B( 21-C , 24-H ) :   0.9966

FINAL SINGLE POINT ENERGY     -3686.739398173022

DIPOLE MOMENT
-------------
                                X             Y             Z
Electronic contribution:      0.09812      -0.09046       0.00000
Nuclear contribution   :     -0.22444       0.17019       0.00000
                        -----------------------------------------
Total Dipole Moment    :     -0.12632       0.07973       0.00000
                        -----------------------------------------
Magnitude (a.u.)       :      0.14938
Magnitude (Debye)      :      0.37969

Rotational constants in cm-1:     0.033382     0.004807     0.004202
Rotational constants in MHz :  1000.774293   144.112939   125.972690

                             ****ORCA TERMINATED NORMALLY****
TOTAL RUN TIME: 0 days 6 hours 27 minutes 44 seconds 377 msec
