                         Program Version 5.0.4 -  RELEASE  -
|  1> ! RIJCOSX nofrozencore ReducedPop printbasis
|  2> ! M06L ano-rcc-dzp autoaux
|  3>
|  4> %maxcore 5000
|  5> %basis
|  6> PCDTrimBas overlap
|  7> PCDTrimAuxJ Coulomb
|  8> PCDTrimAuxJK Coulomb
|  9> PCDTrimAuxC Coulomb
| 10> PCDThresh -1
| 11> end
| 12>
| 13> %basis
| 14> newgto Cu "ano-rcc-tzp" end
| 15> newgto S "ano-rcc-tzp" end
| 16> end
| 17>
| 18> %pal
| 19> nprocs 4
| 20> end
| 21>
| 22> % sym SymThresh 1e-2 end
| 23> * xyz -2 2
| 24> Cu 8.747135633858462e-05 2.033402066945615e-05 3.2020140906974194e-05
| 25> S 1.5706055214078376 1.0269472665859436 -1.3395485766357533
| 26> C 3.119426955913458 1.223454067562805 -0.2995095542741916
| 27> S -1.534147072030676 0.049807016248168204 -1.7373101463262566
| 28> C -2.9506857216210842 -0.6875888512223152 -1.0753447022016887
| 29> S 1.482919123216086 -0.0773367628337473 1.7637443398487298
| 30> C 3.07854703431343 0.703224847132627 1.1629003410005856
| 31> S -1.6215539870886988 -1.0307848509591468 1.2977388267208751
| 32> C -2.9864753226472653 -1.1590362251589614 0.2512405777997993
| 33> C -4.180768057125902 -1.7404708676950849 0.6928633811007958
| 34> C -4.109251557659983 -0.8373211205004403 -1.8454021459643675
| 35> C -5.288687495738559 -1.4172815889358261 -1.3926146828186705
| 36> H -4.064340899403014 -0.46864998228955246 -2.8652180434420518
| 37> C -5.323422108026776 -1.8821850956775354 -0.08386319150320724
| 38> H -4.196301607060453 -2.1000177466145757 1.716790897358995
| 39> H -6.1433175388202965 -1.4939114814750076 -2.0584965478326835
| 40> H -6.2079547402802655 -2.347018748253938 0.3421556135960406
| 41> C 4.25060790392634 1.8524117879749462 -0.9441446023864086
| 42> C 4.163721175873996 0.7636154427844349 2.1151776417938515
| 43> C 5.254388487690924 1.8657451388832749 0.05972656520771334
| 44> H 4.312630483433401 2.2265053085735955 -1.961871589532961
| 45> C 5.215993034876227 1.3901238294751415 1.39567955165935
| 46> H 4.169103106994974 0.4104738868973777 3.142297540401642
| 47> H 6.265661630056418 2.295140736890202 -0.13216217052862717
| 48> H 6.20854996628775 1.5838215800911621 1.8661524313785094
| 49> *
| 50>
| 51> % eprnmr
| 52> gtensor true
| 53> Nuclei = all H {aiso,adip,aorb,fgrad,rho}
| 54> Nuclei = all Cu {aiso,adip,aorb,fgrad,rho}
| 55> end
| 56>
| 57>                          ****END OF INPUT****

CARTESIAN COORDINATES (ANGSTROEM)
---------------------------------
  Cu     0.000000   -0.000000    0.000093
  S      0.000000   -1.647541    1.612895
  C      0.000000   -0.776362    3.273852
  S      0.000000   -1.611431   -1.666882
  C      0.000000   -0.704161   -3.136042
  S      0.000000    1.647541    1.612895
  C      0.000000    0.776362    3.273852
  S      0.000000    1.611431   -1.666882
  C      0.000000    0.704161   -3.136042
  C      0.000000    1.347552   -4.378863
  C      0.000000   -1.347552   -4.378863
  C      0.000000   -0.694652   -5.605429
  H      0.000000   -2.432775   -4.363346
  C      0.000000    0.694652   -5.605429
  H      0.000000    2.432775   -4.363346
  H      0.000000   -1.274273   -6.524042
  H      0.000000    1.274273   -6.524042
  C      0.000000   -1.624229    4.444543
  C      0.000000    1.624229    4.444543
  C      0.000000   -0.709306    5.530547
  H      0.000000   -2.709756    4.480147
  C      0.000000    0.709306    5.530547
  H      0.000000    2.709756    4.480147
  H      0.000000   -1.060954    6.588988
  H      0.000000    1.060954    6.588988

 Total Charge           Charge          ....   -2
 Multiplicity           Mult            ....    2
 Number of Electrons    NEL             ....  175
 Basis Dimension        Dim             ....  475

ORBITAL ENERGIES
----------------
                 SPIN UP ORBITALS
  NO   OCC          E(Eh)            E(eV)    Irrep
   0   1.0000    -318.180247     -8658.1247    1-A1
   1   1.0000     -88.019149     -2395.1228    1-B2
   2   1.0000     -88.019142     -2395.1226    2-A1
   3   1.0000     -88.012239     -2394.9348    2-B2
   4   1.0000     -88.012227     -2394.9345    3-A1
   5   1.0000     -38.025511     -1034.7268    4-A1
   6   1.0000     -33.528639      -912.3607    3-B2
   7   1.0000     -33.527789      -912.3375    5-A1
   8   1.0000     -33.513981      -911.9618    1-B1
   9   1.0000      -9.865987      -268.4672    6-A1
  10   1.0000      -9.865891      -268.4645    4-B2
  11   1.0000      -9.843767      -267.8625    5-B2
  12   1.0000      -9.843762      -267.8624    7-A1
  13   1.0000      -9.838837      -267.7284    8-A1
  14   1.0000      -9.838500      -267.7192    6-B2
  15   1.0000      -9.827782      -267.4275    9-A1
  16   1.0000      -9.827403      -267.4172    7-B2
  17   1.0000      -9.821875      -267.2668   10-A1
  18   1.0000      -9.821430      -267.2547    8-B2
  19   1.0000      -9.812509      -267.0120    9-B2
  20   1.0000      -9.812505      -267.0118   11-A1
  21   1.0000      -7.585262      -206.4055   10-B2
  22   1.0000      -7.585259      -206.4054   12-A1
  23   1.0000      -7.581369      -206.2995   11-B2
  24   1.0000      -7.581358      -206.2992   13-A1
  25   1.0000      -5.509256      -149.9145   12-B2
  26   1.0000      -5.509256      -149.9145   14-A1
  27   1.0000      -5.504480      -149.7845   13-B2
  28   1.0000      -5.504479      -149.7845   15-A1
  29   1.0000      -5.503185      -149.7493   14-B2
  30   1.0000      -5.503185      -149.7493   16-A1
  31   1.0000      -5.501177      -149.6946    1-A2
  32   1.0000      -5.501177      -149.6946    2-B1
  33   1.0000      -5.499245      -149.6421   15-B2
  34   1.0000      -5.499245      -149.6421   17-A1
  35   1.0000      -5.497451      -149.5932    2-A2
  36   1.0000      -5.497451      -149.5932    3-B1
  37   1.0000      -4.023059      -109.4730   18-A1
  38   1.0000      -2.544587       -69.2417   16-B2
  39   1.0000      -2.542897       -69.1957   19-A1
  40   1.0000      -2.515476       -68.4496    4-B1
  41   1.0000      -0.590067       -16.0565   20-A1
  42   1.0000      -0.579085       -15.7577   21-A1
  43   1.0000      -0.506698       -13.7879   22-A1
  44   1.0000      -0.499237       -13.5849   17-B2
  45   1.0000      -0.487352       -13.2615   18-B2
  46   1.0000      -0.473602       -12.8874   23-A1
  47   1.0000      -0.408939       -11.1278   19-B2
  48   1.0000      -0.390307       -10.6208   20-B2
  49   1.0000      -0.386655       -10.5214   24-A1
  50   1.0000      -0.377618       -10.2755   25-A1
  51   1.0000      -0.325986        -8.8705   26-A1
  52   1.0000      -0.318537        -8.6678   27-A1
  53   1.0000      -0.297785        -8.1031   21-B2
  54   1.0000      -0.287321        -7.8184   22-B2
  55   1.0000      -0.231489        -6.2991   28-A1
  56   1.0000      -0.223867        -6.0917   23-B2
  57   1.0000      -0.223122        -6.0714   29-A1
  58   1.0000      -0.188953        -5.1417   30-A1
  59   1.0000      -0.178403        -4.8546   31-A1
  60   1.0000      -0.170879        -4.6498   24-B2
  61   1.0000      -0.141847        -3.8599   25-B2
  62   1.0000      -0.136915        -3.7256   26-B2
  63   1.0000      -0.125147        -3.4054   32-A1
  64   1.0000      -0.121892        -3.3169   33-A1
  65   1.0000      -0.117009        -3.1840    5-B1
  66   1.0000      -0.109740        -2.9862    6-B1
  67   1.0000      -0.085702        -2.3321   34-A1
  68   1.0000      -0.068014        -1.8507   27-B2
  69   1.0000      -0.056847        -1.5469   35-A1
  70   1.0000      -0.052792        -1.4366   28-B2
  71   1.0000      -0.038978        -1.0606    7-B1
  72   1.0000      -0.029868        -0.8128    3-A2
  73   1.0000      -0.029214        -0.7950   36-A1
  74   1.0000      -0.024457        -0.6655   29-B2
  75   1.0000      -0.022926        -0.6238    8-B1
  76   1.0000      -0.020940        -0.5698    4-A2
  77   1.0000      -0.003601        -0.0980    5-A2
  78   1.0000       0.000331         0.0090   37-A1
  79   1.0000       0.004364         0.1188    9-B1
  80   1.0000       0.018069         0.4917   38-A1
  81   1.0000       0.020639         0.5616   39-A1
  82   1.0000       0.035668         0.9706   30-B2
  83   1.0000       0.051878         1.4117    6-A2
  84   1.0000       0.053810         1.4642    7-A2
  85   1.0000       0.062199         1.6925   10-B1
  86   1.0000       0.087824         2.3898   11-B1
  87   1.0000       0.107532         2.9261   31-B2
  88   0.0000       0.176291         4.7971   12-B1
  89   0.0000       0.179866         4.8944   40-A1
  90   0.0000       0.182267         4.9597   41-A1
  91   0.0000       0.195057         5.3078   32-B2
  92   0.0000       0.197528         5.3750   33-B2

                 SPIN DOWN ORBITALS
  NO   OCC          E(Eh)            E(eV)    Irrep
   0   1.0000    -318.180073     -8658.1199    1-A1
   1   1.0000     -88.018072     -2395.0935    1-B2
   2   1.0000     -88.018065     -2395.0933    2-A1
   3   1.0000     -88.011168     -2394.9056    2-B2
   4   1.0000     -88.011155     -2394.9053    3-A1
   5   1.0000     -38.009669     -1034.2957    4-A1
   6   1.0000     -33.513503      -911.9488    3-B2
   7   1.0000     -33.512689      -911.9266    5-A1
   8   1.0000     -33.509661      -911.8442    1-B1
   9   1.0000      -9.866110      -268.4705    6-A1
  10   1.0000      -9.866014      -268.4679    4-B2
  11   1.0000      -9.843750      -267.8621    5-B2
  12   1.0000      -9.843744      -267.8619    7-A1
  13   1.0000      -9.838820      -267.7279    8-A1
  14   1.0000      -9.838482      -267.7187    6-B2
  15   1.0000      -9.827895      -267.4306    9-A1
  16   1.0000      -9.827515      -267.4203    7-B2
  17   1.0000      -9.821851      -267.2662   10-A1
  18   1.0000      -9.821407      -267.2541    8-B2
  19   1.0000      -9.812445      -267.0102    9-B2
  20   1.0000      -9.812440      -267.0101   11-A1
  21   1.0000      -7.584517      -206.3852   10-B2
  22   1.0000      -7.584513      -206.3851   12-A1
  23   1.0000      -7.580635      -206.2796   11-B2
  24   1.0000      -7.580625      -206.2793   13-A1
  25   1.0000      -5.508343      -149.8896   12-B2
  26   1.0000      -5.508342      -149.8896   14-A1
  27   1.0000      -5.503543      -149.7590   13-B2
  28   1.0000      -5.503542      -149.7590   15-A1
  29   1.0000      -5.500892      -149.6869   14-B2
  30   1.0000      -5.500891      -149.6869   16-A1
  31   1.0000      -5.500343      -149.6720    1-A2
  32   1.0000      -5.500343      -149.6719    2-B1
  33   1.0000      -5.497006      -149.5811   15-B2
  34   1.0000      -5.497005      -149.5811   17-A1
  35   1.0000      -5.496635      -149.5710    2-A2
  36   1.0000      -5.496634      -149.5710    3-B1
  37   1.0000      -3.989477      -108.5592   18-A1
  38   1.0000      -2.503788       -68.1315    4-B1
  39   1.0000      -2.502700       -68.1019   16-B2
  40   1.0000      -2.501004       -68.0558   19-A1
  41   1.0000      -0.589670       -16.0457   20-A1
  42   1.0000      -0.578909       -15.7529   21-A1
  43   1.0000      -0.505430       -13.7534   22-A1
  44   1.0000      -0.498790       -13.5728   17-B2
  45   1.0000      -0.486183       -13.2297   18-B2
  46   1.0000      -0.472258       -12.8508   23-A1
  47   1.0000      -0.405060       -11.0222   19-B2
  48   1.0000      -0.385299       -10.4845   20-B2
  49   1.0000      -0.383467       -10.4347   24-A1
  50   1.0000      -0.374839       -10.1999   25-A1
  51   1.0000      -0.324271        -8.8239   26-A1
  52   1.0000      -0.317046        -8.6273   27-A1
  53   1.0000      -0.295867        -8.0510   21-B2
  54   1.0000      -0.285414        -7.7665   22-B2
  55   1.0000      -0.230908        -6.2833   28-A1
  56   1.0000      -0.223617        -6.0849   23-B2
  57   1.0000      -0.222363        -6.0508   29-A1
  58   1.0000      -0.187966        -5.1148   30-A1
  59   1.0000      -0.177716        -4.8359   31-A1
  60   1.0000      -0.170009        -4.6262   24-B2
  61   1.0000      -0.141156        -3.8410   25-B2
  62   1.0000      -0.135023        -3.6742   26-B2
  63   1.0000      -0.123794        -3.3686   32-A1
  64   1.0000      -0.121685        -3.3112   33-A1
  65   1.0000      -0.116792        -3.1781    5-B1
  66   1.0000      -0.109784        -2.9874    6-B1
  67   1.0000      -0.084009        -2.2860   34-A1
  68   1.0000      -0.063284        -1.7220   27-B2
  69   1.0000      -0.054812        -1.4915   35-A1
  70   1.0000      -0.037570        -1.0223    7-B1
  71   1.0000      -0.036194        -0.9849   28-B2
  72   1.0000      -0.028917        -0.7869    3-A2
  73   1.0000      -0.022506        -0.6124   36-A1
  74   1.0000      -0.020585        -0.5602    8-B1
  75   1.0000      -0.018673        -0.5081    4-A2
  76   1.0000      -0.001240        -0.0337   29-B2
  77   1.0000       0.006138         0.1670    5-A2
  78   1.0000       0.010819         0.2944   37-A1
  79   1.0000       0.015778         0.4293    9-B1
  80   1.0000       0.026466         0.7202   38-A1
  81   1.0000       0.035257         0.9594   39-A1
  82   1.0000       0.043788         1.1915   30-B2
  83   1.0000       0.054856         1.4927    6-A2
  84   1.0000       0.059760         1.6262    7-A2
  85   1.0000       0.064009         1.7418   10-B1
  86   1.0000       0.092015         2.5039   11-B1
  87   0.0000       0.140324         3.8184   31-B2
  88   0.0000       0.176173         4.7939   12-B1
  89   0.0000       0.180987         4.9249   40-A1
  90   0.0000       0.183506         4.9934   41-A1
  91   0.0000       0.196225         5.3396   32-B2

MULLIKEN ATOMIC CHARGES AND SPIN POPULATIONS
--------------------------------------------
   0 Cu:    0.150398    0.374463
   1 S :   -0.410265    0.166538
   2 C :    0.014375   -0.009373
   3 S :   -0.427997    0.162466
   4 C :    0.028990   -0.007226
   5 S :   -0.410265    0.166538
   6 C :    0.014375   -0.009373
   7 S :   -0.427997    0.162466
   8 C :    0.028990   -0.007226
   9 C :   -0.089709   -0.001447
  10 C :   -0.089709   -0.001447
  11 C :   -0.144882   -0.000894
  12 H :    0.070551    0.002091
  13 C :   -0.144882   -0.000894
  14 H :    0.070551    0.002091
  15 H :    0.026756    0.001137
  16 H :    0.026756    0.001137
  17 C :   -0.135076   -0.002365
  18 C :   -0.135076   -0.002365
  19 C :   -0.067596   -0.000596
  20 H :    0.026400    0.001343
  21 C :   -0.067596   -0.000596
  22 H :    0.026400    0.001343
  23 H :    0.033254    0.001093
  24 H :    0.033254    0.001093
Sum of atomic charges         :   -2.0000000

LOEWDIN ATOMIC CHARGES AND SPIN POPULATIONS
-------------------------------------------
   0 Cu:   -0.931944    0.441600
   1 S :   -0.051920    0.129401
   2 C :    0.039179    0.002194
   3 S :    0.012032    0.123595
   4 C :   -0.048475    0.005672
   5 S :   -0.051920    0.129401
   6 C :    0.039179    0.002194
   7 S :    0.012032    0.123595
   8 C :   -0.048475    0.005672
   9 C :    0.307714    0.004040
  10 C :    0.307714    0.004040
  11 C :    0.311594   -0.000098
  12 H :   -0.453664    0.006490
  13 C :    0.311594   -0.000098
  14 H :   -0.453664    0.006490
  15 H :   -0.415625    0.000202
  16 H :   -0.415625    0.000202
  17 C :    0.313637    0.002866
  18 C :    0.313637    0.002866
  19 C :    0.294709   -0.000206
  20 H :   -0.411924    0.004639
  21 C :    0.294709   -0.000206
  22 H :   -0.411924    0.004639
  23 H :   -0.431285    0.000406
  24 H :   -0.431285    0.000406

  Mayer bond orders larger than 0.100000
B(  0-Cu,  1-S ) :   0.7102 B(  0-Cu,  3-S ) :   0.6945 B(  0-Cu,  5-S ) :   0.7102
B(  0-Cu,  7-S ) :   0.6945 B(  1-S ,  2-C ) :   1.1155 B(  2-C ,  6-C ) :   1.2233
B(  2-C , 17-C ) :   1.3547 B(  3-S ,  4-C ) :   1.1960 B(  4-C ,  8-C ) :   1.2400
B(  4-C , 10-C ) :   1.3127 B(  5-S ,  6-C ) :   1.1155 B(  6-C , 18-C ) :   1.3547
B(  7-S ,  8-C ) :   1.1960 B(  8-C ,  9-C ) :   1.3127 B(  9-C , 13-C ) :   1.3643
B(  9-C , 14-H ) :   0.9656 B( 10-C , 11-C ) :   1.3643 B( 10-C , 12-H ) :   0.9656
B( 11-C , 13-C ) :   1.3368 B( 11-C , 15-H ) :   0.9913 B( 13-C , 16-H ) :   0.9913
B( 17-C , 19-C ) :   1.3131 B( 17-C , 20-H ) :   1.0031 B( 18-C , 21-C ) :   1.3131
B( 18-C , 22-H ) :   1.0031 B( 19-C , 21-C ) :   1.3476 B( 19-C , 23-H ) :   0.9839
B( 21-C , 24-H ) :   0.9839

FINAL SINGLE POINT ENERGY     -3686.854974374340

DIPOLE MOMENT
-------------
                                X             Y             Z
Electronic contribution:     -0.00000      -0.00000      -0.14306
Nuclear contribution   :      0.00000       0.00000       0.34366
                        -----------------------------------------
Total Dipole Moment    :     -0.00000      -0.00000       0.20060
                        -----------------------------------------
Magnitude (a.u.)       :      0.20060
Magnitude (Debye)      :      0.50989

Rotational constants in cm-1:     0.031814     0.004795     0.004167
Rotational constants in MHz :   953.749690   143.755490   124.925838

                             ****ORCA TERMINATED NORMALLY****
TOTAL RUN TIME: 0 days 5 hours 28 minutes 37 seconds 327 msec
