                         Program Version 5.0.4 -  RELEASE  -
|  1> ! RIJCOSX nofrozencore ReducedPop printbasis
|  2> ! M06L ano-rcc-dzp autoaux
|  3>
|  4> %maxcore 5000
|  5> %basis
|  6> PCDTrimBas overlap
|  7> PCDTrimAuxJ Coulomb
|  8> PCDTrimAuxJK Coulomb
|  9> PCDTrimAuxC Coulomb
| 10> PCDThresh -1
| 11> end
| 12>
| 13> %basis
| 14> newgto Cu "ano-rcc-tzp" end
| 15> newgto S "ano-rcc-tzp" end
| 16> end
| 17>
| 18> %pal
| 19> nprocs 12
| 20> end
| 21>
| 22> % sym SymThresh 1e-2 end
| 23> * xyz -2 2
| 24> Cu 8.898769271013381e-06 -9.985693021229157e-06 3.119451619030248e-05
| 25> S -0.575494520145579 0.6849081453294512 -2.1365046393061684
| 26> C 0.8889974803990132 1.0108499561525173 -2.9989566607544798
| 27> S -2.226190899381369 -0.25809082111969156 0.5882515806169465
| 28> C -2.2306443125217603 -0.7996774539379023 2.2368928906004233
| 29> S 2.2254534447098657 0.2579896445925984 -0.5880089699868326
| 30> C 2.278432264939525 0.7993850002038818 -2.2317609089626034
| 31> S 0.575756270422373 -0.6851202683271164 2.1371737488834874
| 32> C -0.9168763298977874 -0.9994800833355422 2.961862945818517
| 33> C -1.0135659362560987 -1.422197106989159 4.2403804846554705
| 34> C -3.342298733857739 -1.065441005110606 2.947429410260211
| 35> C -3.4459136016352367 -1.4799990919172106 4.200489748449757
| 36> H -4.298949051974194 -0.9318107783226451 2.4556394100759014
| 37> C -2.089573047826023 -1.6851927650961374 4.945653199187818
| 38> H -0.08549545259932989 -1.5716733675021384 4.777882228390453
| 39> H -4.304085549836089 -1.719541410043623 4.853685521167843
| 40> H -2.267876941290213 -2.030726027955675 5.981915852511845
| 41> C 1.037240595076124 1.4146885765942205 -4.215417033089958
| 42> C 3.3080287860847877 1.0686126851026383 -2.960128315947999
| 43> C 2.0075151769232837 1.6911737944583227 -4.971147590956953
| 44> H 0.14037094171594774 1.5809856146908918 -4.801365813455505
| 45> C 3.5101886855053093 1.4618988812873075 -4.1396729144837545
| 46> H 4.286733962772471 0.9491266883595645 -2.509447501450594
| 47> H 2.3730511620059103 2.0438087013669755 -6.012415365856475
| 48> H 4.271786682682303 1.754516803835645 -4.963046226330507
| 49> *
| 50>
| 51> % eprnmr
| 52> gtensor true
| 53> Nuclei = all H {aiso,adip,aorb,fgrad,rho}
| 54> Nuclei = all Cu {aiso,adip,aorb,fgrad,rho}
| 55> end
| 56>
| 57>                          ****END OF INPUT****

CARTESIAN COORDINATES (ANGSTROEM)
---------------------------------
  Cu     0.000000    0.000000    0.000024
  S     -1.614420    0.000000   -1.660903
  C     -0.800599    0.000000   -3.188650
  S     -1.614963    0.000000    1.661440
  C     -0.756883    0.000000    3.169027
  S      1.614420    0.000000   -1.660903
  C      0.800599    0.000000   -3.188650
  S      1.614963    0.000000    1.661440
  C      0.756883    0.000000    3.169027
  C      1.343686    0.000000    4.382537
  C     -1.343686    0.000000    4.382537
  C     -0.780547    0.000000    5.574764
  H     -2.426694    0.000000    4.410630
  C      0.780547    0.000000    5.574764
  H      2.426694    0.000000    4.410630
  H     -1.174296    0.000000    6.608052
  H      1.174296    0.000000    6.608052
  C     -1.308816    0.000000   -4.374260
  C      1.308816    0.000000   -4.374260
  C     -0.866306    0.000000   -5.554142
  H     -2.389794    0.000000   -4.456700
  C      0.866306    0.000000   -5.554142
  H      2.389794    0.000000   -4.456700
  H     -1.094310    0.000000   -6.690327
  H      1.094310    0.000000   -6.690327

 Total Charge           Charge          ....   -2
 Multiplicity           Mult            ....    2
 Number of Electrons    NEL             ....  175
 Basis Dimension        Dim             ....  475

ORBITAL ENERGIES
----------------
                 SPIN UP ORBITALS
  NO   OCC          E(Eh)            E(eV)    Irrep
   0   1.0000    -318.189945     -8658.3886    1-A1
   1   1.0000     -88.023867     -2395.2512    1-B1
   2   1.0000     -88.023857     -2395.2509    2-A1
   3   1.0000     -88.021911     -2395.1980    2-B1
   4   1.0000     -88.021900     -2395.1977    3-A1
   5   1.0000     -38.035272     -1034.9924    4-A1
   6   1.0000     -33.538616      -912.6321    3-B1
   7   1.0000     -33.537377      -912.5984    5-A1
   8   1.0000     -33.523752      -912.2277    1-B2
   9   1.0000      -9.835120      -267.6272    6-A1
  10   1.0000      -9.834978      -267.6234    4-B1
  11   1.0000      -9.831554      -267.5302    7-A1
  12   1.0000      -9.831495      -267.5286    5-B1
  13   1.0000      -9.827706      -267.4255    8-A1
  14   1.0000      -9.827698      -267.4253    6-B1
  15   1.0000      -9.827263      -267.4134    9-A1
  16   1.0000      -9.827176      -267.4110    7-B1
  17   1.0000      -9.809486      -266.9297    8-B1
  18   1.0000      -9.809481      -266.9295   10-A1
  19   1.0000      -9.800024      -266.6722    9-B1
  20   1.0000      -9.800019      -266.6721   11-A1
  21   1.0000      -7.592082      -206.5911   10-B1
  22   1.0000      -7.592073      -206.5908   12-A1
  23   1.0000      -7.590404      -206.5454   11-B1
  24   1.0000      -7.590395      -206.5451   13-A1
  25   1.0000      -5.515174      -150.0755   12-B1
  26   1.0000      -5.515174      -150.0755   14-A1
  27   1.0000      -5.513518      -150.0305   13-B1
  28   1.0000      -5.513518      -150.0304   15-A1
  29   1.0000      -5.509874      -149.9313   14-B1
  30   1.0000      -5.509874      -149.9313   16-A1
  31   1.0000      -5.508439      -149.8923    1-A2
  32   1.0000      -5.508439      -149.8922    2-B2
  33   1.0000      -5.508318      -149.8890   15-B1
  34   1.0000      -5.508318      -149.8889   17-A1
  35   1.0000      -5.506582      -149.8417    2-A2
  36   1.0000      -5.506582      -149.8417    3-B2
  37   1.0000      -4.032824      -109.7387   18-A1
  38   1.0000      -2.554702       -69.5170   16-B1
  39   1.0000      -2.552354       -69.4531   19-A1
  40   1.0000      -2.525190       -68.7139    4-B2
  41   1.0000      -0.596040       -16.2191   20-A1
  42   1.0000      -0.592817       -16.1314   21-A1
  43   1.0000      -0.525288       -14.2938   17-B1
  44   1.0000      -0.509376       -13.8608   18-B1
  45   1.0000      -0.494210       -13.4481   22-A1
  46   1.0000      -0.485850       -13.2207   23-A1
  47   1.0000      -0.427778       -11.6404   19-B1
  48   1.0000      -0.420595       -11.4450   20-B1
  49   1.0000      -0.385959       -10.5025   24-A1
  50   1.0000      -0.377987       -10.2855   25-A1
  51   1.0000      -0.322246        -8.7688   21-B1
  52   1.0000      -0.310841        -8.4584   22-B1
  53   1.0000      -0.310202        -8.4410   26-A1
  54   1.0000      -0.300583        -8.1793   27-A1
  55   1.0000      -0.236955        -6.4479   28-A1
  56   1.0000      -0.232792        -6.3346   29-A1
  57   1.0000      -0.186394        -5.0720   23-B1
  58   1.0000      -0.186145        -5.0653   30-A1
  59   1.0000      -0.181670        -4.9435   24-B1
  60   1.0000      -0.176498        -4.8028   31-A1
  61   1.0000      -0.160778        -4.3750   25-B1
  62   1.0000      -0.158853        -4.3226   26-B1
  63   1.0000      -0.123396        -3.3578    5-B2
  64   1.0000      -0.120378        -3.2756    6-B2
  65   1.0000      -0.118667        -3.2291   32-A1
  66   1.0000      -0.102151        -2.7797   27-B1
  67   1.0000      -0.087518        -2.3815   28-B1
  68   1.0000      -0.084242        -2.2923   33-A1
  69   1.0000      -0.054579        -1.4852    3-A2
  70   1.0000      -0.048592        -1.3222   34-A1
  71   1.0000      -0.040455        -1.1008   29-B1
  72   1.0000      -0.039847        -1.0843    4-A2
  73   1.0000      -0.033229        -0.9042    7-B2
  74   1.0000      -0.031973        -0.8700   35-A1
  75   1.0000      -0.025197        -0.6857    8-B2
  76   1.0000      -0.016532        -0.4498    5-A2
  77   1.0000      -0.009107        -0.2478   36-A1
  78   1.0000       0.001635         0.0445    9-B2
  79   1.0000       0.002676         0.0728   37-A1
  80   1.0000       0.014662         0.3990   38-A1
  81   1.0000       0.027704         0.7539   39-A1
  82   1.0000       0.029046         0.7904   30-B1
  83   1.0000       0.035441         0.9644    6-A2
  84   1.0000       0.040872         1.1122    7-A2
  85   1.0000       0.068740         1.8705   10-B2
  86   1.0000       0.091488         2.4895   11-B2
  87   1.0000       0.095340         2.5943   31-B1
  88   0.0000       0.175422         4.7735    8-A2
  89   0.0000       0.179190         4.8760   40-A1
  90   0.0000       0.179897         4.8953   41-A1
  91   0.0000       0.189558         5.1581    9-A2
  92   0.0000       0.197104         5.3635   32-B1

                 SPIN DOWN ORBITALS
  NO   OCC          E(Eh)            E(eV)    Irrep
   0   1.0000    -318.189771     -8658.3839    1-A1
   1   1.0000     -88.022816     -2395.2226    1-B1
   2   1.0000     -88.022806     -2395.2223    2-A1
   3   1.0000     -88.020837     -2395.1688    2-B1
   4   1.0000     -88.020827     -2395.1685    3-A1
   5   1.0000     -38.019387     -1034.5601    4-A1
   6   1.0000     -33.523435      -912.2190    3-B1
   7   1.0000     -33.522251      -912.1868    5-A1
   8   1.0000     -33.519414      -912.1096    1-B2
   9   1.0000      -9.835232      -267.6303    6-A1
  10   1.0000      -9.835089      -267.6264    4-B1
  11   1.0000      -9.831648      -267.5327    7-A1
  12   1.0000      -9.831588      -267.5311    5-B1
  13   1.0000      -9.827702      -267.4254    8-A1
  14   1.0000      -9.827694      -267.4251    6-B1
  15   1.0000      -9.827253      -267.4131    9-A1
  16   1.0000      -9.827165      -267.4108    7-B1
  17   1.0000      -9.809430      -266.9282    8-B1
  18   1.0000      -9.809425      -266.9280   10-A1
  19   1.0000      -9.799973      -266.6708    9-B1
  20   1.0000      -9.799968      -266.6707   11-A1
  21   1.0000      -7.591365      -206.5715   10-B1
  22   1.0000      -7.591356      -206.5713   12-A1
  23   1.0000      -7.589669      -206.5254   11-B1
  24   1.0000      -7.589660      -206.5251   13-A1
  25   1.0000      -5.514282      -150.0512   12-B1
  26   1.0000      -5.514281      -150.0512   14-A1
  27   1.0000      -5.512599      -150.0054   13-B1
  28   1.0000      -5.512598      -150.0054   15-A1
  29   1.0000      -5.507671      -149.8713   14-B1
  30   1.0000      -5.507671      -149.8713   16-A1
  31   1.0000      -5.507629      -149.8702    1-A2
  32   1.0000      -5.507629      -149.8702    2-B2
  33   1.0000      -5.506053      -149.8273   15-B1
  34   1.0000      -5.506053      -149.8273   17-A1
  35   1.0000      -5.505764      -149.8195    2-A2
  36   1.0000      -5.505764      -149.8195    3-B2
  37   1.0000      -3.999039      -108.8194   18-A1
  38   1.0000      -2.513447       -68.3944    4-B2
  39   1.0000      -2.512586       -68.3709   16-B1
  40   1.0000      -2.510213       -68.3064   19-A1
  41   1.0000      -0.595636       -16.2081   20-A1
  42   1.0000      -0.592423       -16.1206   21-A1
  43   1.0000      -0.524639       -14.2761   17-B1
  44   1.0000      -0.508551       -13.8384   18-B1
  45   1.0000      -0.492443       -13.4001   22-A1
  46   1.0000      -0.483777       -13.1643   23-A1
  47   1.0000      -0.423814       -11.5326   19-B1
  48   1.0000      -0.416487       -11.3332   20-B1
  49   1.0000      -0.382814       -10.4169   24-A1
  50   1.0000      -0.374697       -10.1960   25-A1
  51   1.0000      -0.319840        -8.7033   21-B1
  52   1.0000      -0.309204        -8.4139   26-A1
  53   1.0000      -0.308539        -8.3958   22-B1
  54   1.0000      -0.299922        -8.1613   27-A1
  55   1.0000      -0.236331        -6.4309   28-A1
  56   1.0000      -0.232136        -6.3167   29-A1
  57   1.0000      -0.186030        -5.0621   23-B1
  58   1.0000      -0.185065        -5.0359   30-A1
  59   1.0000      -0.180875        -4.9218   24-B1
  60   1.0000      -0.175115        -4.7651   31-A1
  61   1.0000      -0.160306        -4.3621   25-B1
  62   1.0000      -0.158357        -4.3091   26-B1
  63   1.0000      -0.123201        -3.3525    5-B2
  64   1.0000      -0.120162        -3.2698    6-B2
  65   1.0000      -0.116548        -3.1714   32-A1
  66   1.0000      -0.099581        -2.7097   27-B1
  67   1.0000      -0.082281        -2.2390   33-A1
  68   1.0000      -0.076157        -2.0723   28-B1
  69   1.0000      -0.053958        -1.4683    3-A2
  70   1.0000      -0.046293        -1.2597   34-A1
  71   1.0000      -0.038689        -1.0528    4-A2
  72   1.0000      -0.029790        -0.8106    7-B2
  73   1.0000      -0.025879        -0.7042   35-A1
  74   1.0000      -0.022513        -0.6126    8-B2
  75   1.0000      -0.008539        -0.2324   29-B1
  76   1.0000      -0.005587        -0.1520    5-A2
  77   1.0000      -0.001017        -0.0277   36-A1
  78   1.0000       0.011234         0.3057   37-A1
  79   1.0000       0.011991         0.3263    9-B2
  80   1.0000       0.026142         0.7114   38-A1
  81   1.0000       0.032372         0.8809   39-A1
  82   1.0000       0.037588         1.0228   30-B1
  83   1.0000       0.038991         1.0610    6-A2
  84   1.0000       0.046462         1.2643    7-A2
  85   1.0000       0.070188         1.9099   10-B2
  86   1.0000       0.094806         2.5798   11-B2
  87   0.0000       0.128456         3.4955   31-B1
  88   0.0000       0.175909         4.7867    8-A2
  89   0.0000       0.179356         4.8805   40-A1
  90   0.0000       0.180303         4.9063   41-A1
  91   0.0000       0.190003         5.1702    9-A2

MULLIKEN ATOMIC CHARGES AND SPIN POPULATIONS
--------------------------------------------
   0 Cu:    0.134015    0.376847
   1 S :   -0.410026    0.158963
   2 C :   -0.071118   -0.004503
   3 S :   -0.412199    0.164305
   4 C :   -0.026874   -0.006500
   5 S :   -0.410026    0.158963
   6 C :   -0.071118   -0.004503
   7 S :   -0.412199    0.164305
   8 C :   -0.026874   -0.006500
   9 C :   -0.021250   -0.000794
  10 C :   -0.021250   -0.000794
  11 C :   -0.148948   -0.001652
  12 H :    0.065698    0.001626
  13 C :   -0.148948   -0.001652
  14 H :    0.065698    0.001626
  15 H :    0.013947    0.000685
  16 H :    0.013947    0.000685
  17 C :    0.045001   -0.000472
  18 C :    0.045001   -0.000472
  19 C :   -0.141673   -0.002150
  20 H :    0.055415    0.001595
  21 C :   -0.141673   -0.002150
  22 H :    0.055415    0.001595
  23 H :   -0.014981    0.000476
  24 H :   -0.014981    0.000476
Sum of atomic charges         :   -2.0000000

LOEWDIN ATOMIC CHARGES AND SPIN POPULATIONS
-------------------------------------------
   0 Cu:   -0.895446    0.441740
   1 S :    0.033493    0.123188
   2 C :   -0.013661    0.007380
   3 S :    0.023291    0.125583
   4 C :   -0.025343    0.006219
   5 S :    0.033493    0.123188
   6 C :   -0.013661    0.007380
   7 S :    0.023291    0.125583
   8 C :   -0.025343    0.006219
   9 C :    0.246515    0.003625
  10 C :    0.246515    0.003625
  11 C :    0.339166   -0.000711
  12 H :   -0.450324    0.006038
  13 C :    0.339166   -0.000711
  14 H :   -0.450324    0.006038
  15 H :   -0.405497   -0.000062
  16 H :   -0.405497   -0.000062
  17 C :    0.182005    0.003409
  18 C :    0.182005    0.003409
  19 C :    0.353714   -0.001052
  20 H :   -0.461195    0.005646
  21 C :    0.353714   -0.001052
  22 H :   -0.461195    0.005646
  23 H :   -0.374441   -0.000136
  24 H :   -0.374441   -0.000136

  Mayer bond orders larger than 0.100000
B(  0-Cu,  1-S ) :   0.7027 B(  0-Cu,  3-S ) :   0.7077 B(  0-Cu,  5-S ) :   0.7027
B(  0-Cu,  7-S ) :   0.7077 B(  1-S ,  2-C ) :   1.2250 B(  2-C ,  6-C ) :   1.1999
B(  2-C , 17-C ) :   1.2769 B(  3-S ,  4-C ) :   1.2059 B(  4-C ,  8-C ) :   1.2302
B(  4-C , 10-C ) :   1.2943 B(  5-S ,  6-C ) :   1.2250 B(  6-C , 18-C ) :   1.2769
B(  7-S ,  8-C ) :   1.2059 B(  8-C ,  9-C ) :   1.2943 B(  9-C , 13-C ) :   1.4067
B(  9-C , 14-H ) :   0.9665 B( 10-C , 11-C ) :   1.4067 B( 10-C , 12-H ) :   0.9665
B( 11-C , 13-C ) :   1.2438 B( 11-C , 15-H ) :   0.9890 B( 13-C , 16-H ) :   0.9890
B( 17-C , 19-C ) :   1.4315 B( 17-C , 20-H ) :   0.9559 B( 18-C , 21-C ) :   1.4315
B( 18-C , 22-H ) :   0.9559 B( 19-C , 21-C ) :   1.1240 B( 19-C , 23-H ) :   0.9788
B( 21-C , 24-H ) :   0.9788

FINAL SINGLE POINT ENERGY     -3686.716281346030

DIPOLE MOMENT
-------------
                                X             Y             Z
Electronic contribution:      0.00000       0.00000       0.48847
Nuclear contribution   :     -0.00000       0.00000      -0.24098
                        -----------------------------------------
Total Dipole Moment    :      0.00000       0.00000       0.24749
                        -----------------------------------------
Magnitude (a.u.)       :      0.24749
Magnitude (Debye)      :      0.62906

Rotational constants in cm-1:     0.033101     0.004809     0.004199
Rotational constants in MHz :   992.352346   144.166918   125.879414

                             ****ORCA TERMINATED NORMALLY****
TOTAL RUN TIME: 0 days 6 hours 38 minutes 36 seconds 2 msec
