                         Program Version 5.0.4 -  RELEASE  -
|  1> ! RIJCOSX nofrozencore ReducedPop printbasis
|  2> ! M06L ano-rcc-dzp autoaux
|  3>
|  4> %maxcore 5000
|  5> %basis
|  6> PCDTrimBas overlap
|  7> PCDTrimAuxJ Coulomb
|  8> PCDTrimAuxJK Coulomb
|  9> PCDTrimAuxC Coulomb
| 10> PCDThresh -1
| 11> end
| 12>
| 13> %basis
| 14> newgto Cu "ano-rcc-tzp" end
| 15> newgto S "ano-rcc-tzp" end
| 16> end
| 17>
| 18> %pal
| 19> nprocs 12
| 20> end
| 21>
| 22> % sym SymThresh 1e-2 end
| 23> * xyz -2 2
| 24> Cu -0.0004683448961597664 0.001441213340250551 -1.556168772809746e-05
| 25> S 1.8391647703218978 -1.1860285176059648 0.7558918632166891
| 26> C 2.931440058419177 0.2159318719174982 1.5319482726040645
| 27> S -0.969110563137876 -1.9478441237375204 -0.7978813105599101
| 28> C -2.514203277728863 -1.4024230267507922 -1.5029498858982577
| 29> S 0.9968776034686547 1.933039333068948 0.8097751726966868
| 30> C 2.3487675556365235 1.5322707272391771 1.43855360778636
| 31> S -1.855180198831269 1.1592264492734456 -0.7682407953065581
| 32> C -2.8599924198487052 -0.020420226536014118 -1.4650628775769887
| 33> C -4.091802622391112 0.2600892953879874 -2.0511396384602385
| 34> C -3.343634228305555 -2.3948000660500033 -2.0810407288720745
| 35> C -4.5574653317484195 -1.9648123578381496 -2.6347120808755866
| 36> H -3.0156896091443595 -3.4292080385980914 -2.074064294383608
| 37> C -4.970111568057894 -0.6309453488681697 -2.6384751596821454
| 38> H -4.396016439598159 1.3028460061646152 -2.0446893845407508
| 39> H -5.22718159911679 -2.6926108379650646 -3.090072900322242
| 40> H -5.904935553420342 -0.27778688872147395 -3.0614637054630998
| 41> C 4.1533718492942455 -0.47948852016359395 2.0485361439983
| 42> C 3.4027553943526367 2.179078424926212 2.0777570656597772
| 43> C 4.851383448007855 0.7025882987485701 2.5889138360737314
| 44> H 4.324655120697309 -1.5541493586663802 1.9691831409174263
| 45> C 4.6254762352738386 2.0933324197883496 2.6894363651557196
| 46> H 3.1914768851992683 3.2507305208215005 2.136199129134349
| 47> H 5.843160695404775 0.5694102602386162 3.075179172940785
| 48> H 5.126462235381043 2.9860512084468596 3.084163994740561
| 49> *
| 50>
| 51> % eprnmr
| 52> gtensor true
| 53> Nuclei = all H {aiso,adip,aorb,fgrad,rho}
| 54> Nuclei = all Cu {aiso,adip,aorb,fgrad,rho}
| 55> end
| 56>
| 57>                          ****END OF INPUT****

CARTESIAN COORDINATES (ANGSTROEM)
---------------------------------
  Cu    -0.000475    0.001439    0.000000
  S      2.022297   -1.127332    0.000000
  C      3.297825    0.333438    0.000000
  S     -1.156596   -2.008027    0.000000
  C     -2.871488   -1.517044    0.000000
  S      1.187238    1.994143    0.000000
  C      2.690398    1.641876    0.000000
  S     -2.041220    1.099597    0.000000
  C     -3.210720   -0.132899    0.000000
  C     -4.583358    0.102455    0.000000
  C     -3.837520   -2.553258    0.000000
  C     -5.184693   -2.166021    0.000000
  H     -3.506024   -3.586557    0.000000
  C     -5.600666   -0.833182    0.000000
  H     -4.887924    1.145129    0.000000
  H     -5.962108   -2.928379    0.000000
  H     -6.637404   -0.512697    0.000000
  C      4.644703   -0.321933    0.000000
  C      3.896247    2.337404    0.000000
  C      5.469942    0.900980    0.000000
  H      4.798942   -1.402091    0.000000
  C      5.265572    2.298671    0.000000
  H      3.697012    3.412949    0.000000
  H      6.578382    0.805212    0.000000
  H      5.859440    3.221203    0.000000

 Total Charge           Charge          ....   -2
 Multiplicity           Mult            ....    2
 Number of Electrons    NEL             ....  175
 Basis Dimension        Dim             ....  475

ORBITAL ENERGIES
----------------
                 SPIN UP ORBITALS
  NO   OCC          E(Eh)            E(eV)    Irrep
   0   1.0000    -318.181546     -8658.1600    1-A'
   1   1.0000     -88.018499     -2395.1051    2-A'
   2   1.0000     -88.015904     -2395.0345    3-A'
   3   1.0000     -88.013656     -2394.9733    4-A'
   4   1.0000     -88.004586     -2394.7265    5-A'
   5   1.0000     -38.026501     -1034.7537    6-A'
   6   1.0000     -33.529604      -912.3869    7-A'
   7   1.0000     -33.528732      -912.3632    8-A'
   8   1.0000     -33.515256      -911.9965    1-A"
   9   1.0000      -9.852682      -268.1051    9-A'
  10   1.0000      -9.850994      -268.0592   10-A'
  11   1.0000      -9.842240      -267.8210   11-A'
  12   1.0000      -9.838672      -267.7239   12-A'
  13   1.0000      -9.835326      -267.6328   13-A'
  14   1.0000      -9.834677      -267.6152   14-A'
  15   1.0000      -9.831733      -267.5350   15-A'
  16   1.0000      -9.825667      -267.3700   16-A'
  17   1.0000      -9.823995      -267.3245   17-A'
  18   1.0000      -9.821461      -267.2555   18-A'
  19   1.0000      -9.814656      -267.0704   19-A'
  20   1.0000      -9.813602      -267.0417   20-A'
  21   1.0000      -7.593421      -206.6275   21-A'
  22   1.0000      -7.585690      -206.4171   22-A'
  23   1.0000      -7.581440      -206.3015   23-A'
  24   1.0000      -7.571087      -206.0197   24-A'
  25   1.0000      -5.515975      -150.0973   25-A'
  26   1.0000      -5.510271      -149.9421   26-A'
  27   1.0000      -5.509491      -149.9209    2-A"
  28   1.0000      -5.508773      -149.9013   27-A'
  29   1.0000      -5.504720      -149.7911   28-A'
  30   1.0000      -5.503256      -149.7512   29-A'
  31   1.0000      -5.501808      -149.7118    3-A"
  32   1.0000      -5.499716      -149.6549   30-A'
  33   1.0000      -5.497464      -149.5936    4-A"
  34   1.0000      -5.494175      -149.5041   31-A'
  35   1.0000      -5.489793      -149.3849   32-A'
  36   1.0000      -5.487233      -149.3152    5-A"
  37   1.0000      -4.024117      -109.5018   33-A'
  38   1.0000      -2.545415       -69.2643   34-A'
  39   1.0000      -2.543870       -69.2222   35-A'
  40   1.0000      -2.516944       -68.4895    6-A"
  41   1.0000      -0.601434       -16.3659   36-A'
  42   1.0000      -0.589792       -16.0491   37-A'
  43   1.0000      -0.528511       -14.3815   38-A'
  44   1.0000      -0.505895       -13.7661   39-A'
  45   1.0000      -0.489274       -13.3138   40-A'
  46   1.0000      -0.481619       -13.1055   41-A'
  47   1.0000      -0.419839       -11.4244   42-A'
  48   1.0000      -0.409070       -11.1314   43-A'
  49   1.0000      -0.385529       -10.4908   44-A'
  50   1.0000      -0.373714       -10.1693   45-A'
  51   1.0000      -0.333505        -9.0751   46-A'
  52   1.0000      -0.321888        -8.7590   47-A'
  53   1.0000      -0.297737        -8.1018   48-A'
  54   1.0000      -0.282259        -7.6807   49-A'
  55   1.0000      -0.247302        -6.7294   50-A'
  56   1.0000      -0.231264        -6.2930   51-A'
  57   1.0000      -0.196265        -5.3406   52-A'
  58   1.0000      -0.188788        -5.1372   53-A'
  59   1.0000      -0.176087        -4.7916   54-A'
  60   1.0000      -0.169861        -4.6222   55-A'
  61   1.0000      -0.153689        -4.1821   56-A'
  62   1.0000      -0.149464        -4.0671   57-A'
  63   1.0000      -0.146650        -3.9906   58-A'
  64   1.0000      -0.125944        -3.4271    7-A"
  65   1.0000      -0.117327        -3.1926    8-A"
  66   1.0000      -0.115666        -3.1474   59-A'
  67   1.0000      -0.076606        -2.0845   60-A'
  68   1.0000      -0.063115        -1.7174   61-A'
  69   1.0000      -0.052993        -1.4420    9-A"
  70   1.0000      -0.041671        -1.1339   62-A'
  71   1.0000      -0.039372        -1.0714   10-A"
  72   1.0000      -0.037118        -1.0100   63-A'
  73   1.0000      -0.023537        -0.6405   11-A"
  74   1.0000      -0.019783        -0.5383   64-A'
  75   1.0000      -0.015078        -0.4103   12-A"
  76   1.0000      -0.012070        -0.3285   65-A'
  77   1.0000      -0.002620        -0.0713   13-A"
  78   1.0000       0.000786         0.0214   14-A"
  79   1.0000       0.005451         0.1483   66-A'
  80   1.0000       0.018590         0.5059   67-A'
  81   1.0000       0.023611         0.6425   68-A'
  82   1.0000       0.034742         0.9454   69-A'
  83   1.0000       0.050531         1.3750   15-A"
  84   1.0000       0.053149         1.4463   16-A"
  85   1.0000       0.061785         1.6813   17-A"
  86   1.0000       0.087172         2.3721   18-A"
  87   1.0000       0.104736         2.8500   70-A'
  88   0.0000       0.176721         4.8088   71-A'
  89   0.0000       0.181203         4.9308   72-A'
  90   0.0000       0.194298         5.2871   19-A"
  91   0.0000       0.196882         5.3574   73-A'
  92   0.0000       0.199605         5.4315   74-A'

                 SPIN DOWN ORBITALS
  NO   OCC          E(Eh)            E(eV)    Irrep
   0   1.0000    -318.181373     -8658.1553    1-A'
   1   1.0000     -88.017664     -2395.0824    2-A'
   2   1.0000     -88.015000     -2395.0099    3-A'
   3   1.0000     -88.012400     -2394.9392    4-A'
   4   1.0000     -88.003317     -2394.6920    5-A'
   5   1.0000     -38.010910     -1034.3295    6-A'
   6   1.0000     -33.514708      -911.9816    7-A'
   7   1.0000     -33.513865      -911.9586    8-A'
   8   1.0000     -33.511006      -911.8808    1-A"
   9   1.0000      -9.852686      -268.1052    9-A'
  10   1.0000      -9.850992      -268.0591   10-A'
  11   1.0000      -9.842174      -267.8192   11-A'
  12   1.0000      -9.838801      -267.7274   12-A'
  13   1.0000      -9.835320      -267.6327   13-A'
  14   1.0000      -9.834793      -267.6183   14-A'
  15   1.0000      -9.831838      -267.5379   15-A'
  16   1.0000      -9.825629      -267.3690   16-A'
  17   1.0000      -9.823985      -267.3242   17-A'
  18   1.0000      -9.821401      -267.2539   18-A'
  19   1.0000      -9.814482      -267.0656   19-A'
  20   1.0000      -9.813540      -267.0400   20-A'
  21   1.0000      -7.592858      -206.6122   21-A'
  22   1.0000      -7.585069      -206.4002   22-A'
  23   1.0000      -7.580582      -206.2781   23-A'
  24   1.0000      -7.570228      -205.9964   24-A'
  25   1.0000      -5.515227      -150.0770   25-A'
  26   1.0000      -5.508853      -149.9035    2-A"
  27   1.0000      -5.508587      -149.8963   26-A'
  28   1.0000      -5.507986      -149.8799   27-A'
  29   1.0000      -5.503616      -149.7610   28-A'
  30   1.0000      -5.501353      -149.6994   29-A'
  31   1.0000      -5.501119      -149.6931    3-A"
  32   1.0000      -5.497101      -149.5837   30-A'
  33   1.0000      -5.496508      -149.5676    4-A"
  34   1.0000      -5.492980      -149.4716   31-A'
  35   1.0000      -5.487217      -149.3148   32-A'
  36   1.0000      -5.486281      -149.2893    5-A"
  37   1.0000      -3.991047      -108.6019   33-A'
  38   1.0000      -2.505424       -68.1760    6-A"
  39   1.0000      -2.504310       -68.1457   34-A'
  40   1.0000      -2.502464       -68.0955   35-A'
  41   1.0000      -0.600853       -16.3500   36-A'
  42   1.0000      -0.589420       -16.0389   37-A'
  43   1.0000      -0.527015       -14.3408   38-A'
  44   1.0000      -0.504644       -13.7321   39-A'
  45   1.0000      -0.488210       -13.2849   40-A'
  46   1.0000      -0.480868       -13.0851   41-A'
  47   1.0000      -0.417420       -11.3586   42-A'
  48   1.0000      -0.405256       -11.0276   43-A'
  49   1.0000      -0.381863       -10.3910   44-A'
  50   1.0000      -0.368585       -10.0297   45-A'
  51   1.0000      -0.333032        -9.0623   46-A'
  52   1.0000      -0.320666        -8.7258   47-A'
  53   1.0000      -0.295585        -8.0433   48-A'
  54   1.0000      -0.279516        -7.6060   49-A'
  55   1.0000      -0.246813        -6.7161   50-A'
  56   1.0000      -0.230634        -6.2759   51-A'
  57   1.0000      -0.195942        -5.3318   52-A'
  58   1.0000      -0.187829        -5.1111   53-A'
  59   1.0000      -0.175429        -4.7737   54-A'
  60   1.0000      -0.168662        -4.5895   55-A'
  61   1.0000      -0.152702        -4.1552   56-A'
  62   1.0000      -0.148409        -4.0384   57-A'
  63   1.0000      -0.144228        -3.9246   58-A'
  64   1.0000      -0.125614        -3.4181    7-A"
  65   1.0000      -0.117142        -3.1876    8-A"
  66   1.0000      -0.113622        -3.0918   59-A'
  67   1.0000      -0.074291        -2.0216   60-A'
  68   1.0000      -0.057054        -1.5525   61-A'
  69   1.0000      -0.051803        -1.4096    9-A"
  70   1.0000      -0.037943        -1.0325   10-A"
  71   1.0000      -0.034794        -0.9468   62-A'
  72   1.0000      -0.020922        -0.5693   11-A"
  73   1.0000      -0.016537        -0.4500   63-A'
  74   1.0000      -0.013467        -0.3665   12-A"
  75   1.0000      -0.008220        -0.2237   64-A'
  76   1.0000      -0.003363        -0.0915   65-A'
  77   1.0000       0.006834         0.1860   13-A"
  78   1.0000       0.012841         0.3494   14-A"
  79   1.0000       0.015338         0.4174   66-A'
  80   1.0000       0.028310         0.7704   67-A'
  81   1.0000       0.033969         0.9243   68-A'
  82   1.0000       0.043247         1.1768   69-A'
  83   1.0000       0.053448         1.4544   15-A"
  84   1.0000       0.057949         1.5769   16-A"
  85   1.0000       0.064044         1.7427   17-A"
  86   1.0000       0.091539         2.4909   18-A"
  87   0.0000       0.137182         3.7329   70-A'
  88   0.0000       0.178193         4.8489   71-A'
  89   0.0000       0.182368         4.9625   72-A'
  90   0.0000       0.194390         5.2896   19-A"
  91   0.0000       0.198832         5.4105   73-A'

MULLIKEN ATOMIC CHARGES AND SPIN POPULATIONS
--------------------------------------------
   0 Cu:    0.139834    0.370374
   1 S :   -0.477744    0.203355
   2 C :    0.044478   -0.006918
   3 S :   -0.412381    0.189700
   4 C :    0.041411   -0.008851
   5 S :   -0.382936    0.119127
   6 C :    0.053440   -0.006428
   7 S :   -0.437574    0.138711
   8 C :    0.011438   -0.005917
   9 C :   -0.057460   -0.000948
  10 C :   -0.124734   -0.002369
  11 C :   -0.115761   -0.000206
  12 H :    0.053533    0.002753
  13 C :   -0.163260   -0.001467
  14 H :    0.074992    0.001475
  15 H :    0.041522    0.001256
  16 H :    0.020687    0.001004
  17 C :   -0.155920   -0.004609
  18 C :   -0.033427    0.003368
  19 C :   -0.101452    0.001358
  20 H :    0.036612    0.004093
  21 C :   -0.160587   -0.001645
  22 H :    0.071626    0.000301
  23 H :    0.028130    0.001216
  24 H :    0.005536    0.001266
Sum of atomic charges         :   -2.0000000

LOEWDIN ATOMIC CHARGES AND SPIN POPULATIONS
-------------------------------------------
   0 Cu:   -0.887405    0.436482
   1 S :   -0.060767    0.151301
   2 C :    0.078020    0.003193
   3 S :   -0.005711    0.147457
   4 C :   -0.009750    0.004834
   5 S :    0.095030    0.091582
   6 C :   -0.169364    0.011129
   7 S :    0.026386    0.103663
   8 C :   -0.067838    0.005508
   9 C :    0.300514    0.003200
  10 C :    0.314000    0.004775
  11 C :    0.310231    0.000353
  12 H :   -0.442719    0.007667
  13 C :    0.315568   -0.000511
  14 H :   -0.454475    0.005034
  15 H :   -0.431772    0.000392
  16 H :   -0.406165    0.000071
  17 C :    0.354179    0.004386
  18 C :    0.280387    0.004964
  19 C :    0.300142    0.001123
  20 H :   -0.441468    0.009608
  21 C :    0.337552   -0.000436
  22 H :   -0.498536    0.003470
  23 H :   -0.483184    0.000550
  24 H :   -0.352855    0.000208

  Mayer bond orders larger than 0.100000
B(  0-Cu,  1-S ) :   0.7505 B(  0-Cu,  3-S ) :   0.7167 B(  0-Cu,  5-S ) :   0.6344
B(  0-Cu,  7-S ) :   0.6864 B(  1-S ,  2-C ) :   1.0494 B(  2-C ,  6-C ) :   1.1957
B(  2-C , 17-C ) :   1.2936 B(  3-S ,  4-C ) :   1.1545 B(  4-C ,  8-C ) :   1.2420
B(  4-C , 10-C ) :   1.3216 B(  5-S ,  6-C ) :   1.4294 B(  6-C , 18-C ) :   1.2097
B(  7-S ,  8-C ) :   1.2214 B(  8-C ,  9-C ) :   1.3076 B(  9-C , 13-C ) :   1.3530
B(  9-C , 14-H ) :   0.9615 B( 10-C , 11-C ) :   1.3701 B( 10-C , 12-H ) :   0.9789
B( 11-C , 13-C ) :   1.3388 B( 11-C , 15-H ) :   0.9809 B( 13-C , 16-H ) :   0.9978
B( 17-C , 19-C ) :   1.3667 B( 17-C , 20-H ) :   0.9922 B( 18-C , 21-C ) :   1.3036
B( 18-C , 22-H ) :   0.9520 B( 19-C , 21-C ) :   1.3271 B( 19-C , 23-H ) :   0.9873
B( 21-C , 24-H ) :   1.0088

FINAL SINGLE POINT ENERGY     -3686.748125876348

DIPOLE MOMENT
-------------
                                X             Y             Z
Electronic contribution:     -0.12208       0.11846      -0.00000
Nuclear contribution   :     -0.05387       0.13894       0.00000
                        -----------------------------------------
Total Dipole Moment    :     -0.17595       0.25740      -0.00000
                        -----------------------------------------
Magnitude (a.u.)       :      0.31179
Magnitude (Debye)      :      0.79250

Rotational constants in cm-1:     0.033268     0.004803     0.004197
Rotational constants in MHz :   997.352730   143.977053   125.814562

                             ****ORCA TERMINATED NORMALLY****
TOTAL RUN TIME: 0 days 6 hours 35 minutes 23 seconds 656 msec
