                         Program Version 5.0.4 -  RELEASE  -
|  1> ! RIJCOSX nofrozencore ReducedPop printbasis
|  2> ! M06L ano-rcc-dzp autoaux
|  3>
|  4> %maxcore 5000
|  5> %basis
|  6> PCDTrimBas overlap
|  7> PCDTrimAuxJ Coulomb
|  8> PCDTrimAuxJK Coulomb
|  9> PCDTrimAuxC Coulomb
| 10> PCDThresh -1
| 11> end
| 12>
| 13> %basis
| 14> newgto Cu "ano-rcc-tzp" end
| 15> newgto S "ano-rcc-tzp" end
| 16> end
| 17>
| 18> %pal
| 19> nprocs 12
| 20> end
| 21>
| 22> % sym SymThresh 1e-2 end
| 23> * xyz -2 2
| 24> Cu 0.00019706254619864742 -0.00012068485045053786 -0.00020375357606048847
| 25> S 1.3613585954480965 -1.6086099624827772 0.964926774122132
| 26> C 0.8716665065667675 -1.6979413647685955 2.662962645327652
| 27> S 1.0128457750898139 -0.2879978089026518 -2.0646171090114955
| 28> C 0.1778873418819721 0.8151548264830221 -3.0132737381654526
| 29> S -1.0123766357407231 0.28759114814178366 2.0644974624624237
| 30> C -0.19545232688579478 -0.8218545558462135 3.084883554540552
| 31> S -1.3612636602688288 1.6089936234555275 -0.9663776144199336
| 32> C -0.8673135234267723 1.7063797160238032 -2.7014616467676458
| 33> C -1.4838236595847432 2.5031794166493806 -3.3476154146824277
| 34> C 0.5165079218353438 1.0262947261812774 -4.644785380639221
| 35> C -0.034350491572776254 1.7422428900489153 -5.234374893375875
| 36> H 1.3542179307421613 0.21209071888656442 -4.588819809833853
| 37> C -1.0460588610174115 2.6342375449721773 -5.022350098474409
| 38> H -2.3298053797229077 3.296939793048075 -3.3169252202145456
| 39> H 0.09343031785181227 1.9734312292718457 -6.313931781345259
| 40> H -1.7772611159314462 3.4497251962245756 -5.392079463876291
| 41> C 1.4686335952398575 -2.5229397681035843 3.4523048081929675
| 42> C -0.5273377518007095 -0.9811718065438235 4.538134797634189
| 43> C 1.097421791280696 -2.648422470323894 4.916364711592372
| 44> H 2.2871850991815883 -3.2305896598984254 3.237761530371266
| 45> C 0.036237909594356243 -1.7640708299235324 5.295715907860818
| 46> H -1.3404531444096008 -0.2717145000706488 4.731330456859019
| 47> H 1.6650038752322398 -3.378538701308546 5.500683657497764
| 48> H -0.14969827587111434 -1.9368227984001762 6.365530983291144
| 49> *
| 50>
| 51> % eprnmr
| 52> gtensor true
| 53> Nuclei = all H {aiso,adip,aorb,fgrad,rho}
| 54> Nuclei = all Cu {aiso,adip,aorb,fgrad,rho}
| 55> end
| 56>
| 57>                          ****END OF INPUT****

CARTESIAN COORDINATES (ANGSTROEM)
---------------------------------
  Cu    -0.000184    0.000247    0.000000
  S      1.211163    1.976130    0.000000
  C      2.914465    1.496686    0.000000
  S     -2.009092    1.155418    0.000000
  C     -3.125146   -0.096970    0.000000
  S      2.009037   -1.154789    0.000000
  C      3.197436    0.080983    0.000000
  S     -1.212667   -1.976164    0.000000
  C     -2.954085   -1.495072    0.000000
  C     -3.721348   -2.413656    0.000000
  C     -4.781283    0.182823    0.000000
  C     -5.479647   -0.639327    0.000000
  H     -4.598473    1.337984    0.000000
  C     -5.407983   -2.002789    0.000000
  H     -3.814754   -3.570358    0.000000
  H     -6.589782   -0.586231    0.000000
  H     -5.903153   -3.047386    0.000000
  C      3.828588    2.404669    0.000000
  C      4.668132   -0.209741    0.000000
  C      5.304755    2.061236    0.000000
  H      3.725635    3.502952    0.000000
  C      5.544083    0.648856    0.000000
  H      4.749565   -1.302984    0.000000
  H      6.000087    2.905724    0.000000
  H      6.635401    0.514903    0.000000

 Total Charge           Charge          ....   -2
 Multiplicity           Mult            ....    2
 Number of Electrons    NEL             ....  175
 Basis Dimension        Dim             ....  475

ORBITAL ENERGIES
----------------
                 SPIN UP ORBITALS
  NO   OCC          E(Eh)            E(eV)    Irrep
   0   1.0000    -318.186541     -8658.2960    1-A'
   1   1.0000     -88.045192     -2395.8315    2-A'
   2   1.0000     -88.029773     -2395.4119    3-A'
   3   1.0000     -88.010538     -2394.8885    4-A'
   4   1.0000     -88.000406     -2394.6128    5-A'
   5   1.0000     -38.031343     -1034.8855    6-A'
   6   1.0000     -33.534388      -912.5171    7-A'
   7   1.0000     -33.533535      -912.4939    8-A'
   8   1.0000     -33.520249      -912.1323    1-A"
   9   1.0000      -9.855919      -268.1932    9-A'
  10   1.0000      -9.846118      -267.9265   10-A'
  11   1.0000      -9.828868      -267.4571   11-A'
  12   1.0000      -9.827628      -267.4234   12-A'
  13   1.0000      -9.824814      -267.3468   13-A'
  14   1.0000      -9.820457      -267.2282   14-A'
  15   1.0000      -9.819678      -267.2070   15-A'
  16   1.0000      -9.818604      -267.1778   16-A'
  17   1.0000      -9.815108      -267.0827   17-A'
  18   1.0000      -9.810584      -266.9596   18-A'
  19   1.0000      -9.808771      -266.9102   19-A'
  20   1.0000      -9.802145      -266.7299   20-A'
  21   1.0000      -7.613650      -207.1779   21-A'
  22   1.0000      -7.598112      -206.7551   22-A'
  23   1.0000      -7.579375      -206.2453   23-A'
  24   1.0000      -7.569475      -205.9759   24-A'
  25   1.0000      -5.536388      -150.6528   25-A'
  26   1.0000      -5.530901      -150.5035    2-A"
  27   1.0000      -5.530825      -150.5014   26-A'
  28   1.0000      -5.521166      -150.2386   27-A'
  29   1.0000      -5.515766      -150.0916   28-A'
  30   1.0000      -5.514690      -150.0623    3-A"
  31   1.0000      -5.502644      -149.7346   29-A'
  32   1.0000      -5.497466      -149.5937   30-A'
  33   1.0000      -5.495142      -149.5304    4-A"
  34   1.0000      -5.492956      -149.4709   31-A'
  35   1.0000      -5.487914      -149.3337   32-A'
  36   1.0000      -5.484803      -149.2491    5-A"
  37   1.0000      -4.028876      -109.6313   33-A'
  38   1.0000      -2.550067       -69.3908   34-A'
  39   1.0000      -2.548517       -69.3487   35-A'
  40   1.0000      -2.521945       -68.6256    6-A"
  41   1.0000      -0.601839       -16.3769   36-A'
  42   1.0000      -0.594685       -16.1822   37-A'
  43   1.0000      -0.541450       -14.7336   38-A'
  44   1.0000      -0.518616       -14.1123   39-A'
  45   1.0000      -0.488201       -13.2846   40-A'
  46   1.0000      -0.487450       -13.2642   41-A'
  47   1.0000      -0.415237       -11.2992   42-A'
  48   1.0000      -0.413961       -11.2644   43-A'
  49   1.0000      -0.383728       -10.4418   44-A'
  50   1.0000      -0.373276       -10.1573   45-A'
  51   1.0000      -0.334571        -9.1041   46-A'
  52   1.0000      -0.321578        -8.7506   47-A'
  53   1.0000      -0.300614        -8.1801   48-A'
  54   1.0000      -0.285026        -7.7560   49-A'
  55   1.0000      -0.237617        -6.4659   50-A'
  56   1.0000      -0.232874        -6.3368   51-A'
  57   1.0000      -0.216367        -5.8877   52-A'
  58   1.0000      -0.202391        -5.5073   53-A'
  59   1.0000      -0.182115        -4.9556   54-A'
  60   1.0000      -0.179478        -4.8838   55-A'
  61   1.0000      -0.141108        -3.8398   56-A'
  62   1.0000      -0.132719        -3.6115    7-A"
  63   1.0000      -0.130385        -3.5480   57-A'
  64   1.0000      -0.122151        -3.3239    8-A"
  65   1.0000      -0.113399        -3.0858   58-A'
  66   1.0000      -0.106485        -2.8976   59-A'
  67   1.0000      -0.093458        -2.5431   60-A'
  68   1.0000      -0.078475        -2.1354   61-A'
  69   1.0000      -0.075565        -2.0562    9-A"
  70   1.0000      -0.049452        -1.3457   10-A"
  71   1.0000      -0.046981        -1.2784   62-A'
  72   1.0000      -0.044861        -1.2207   63-A'
  73   1.0000      -0.033585        -0.9139   11-A"
  74   1.0000      -0.023575        -0.6415   64-A'
  75   1.0000      -0.022774        -0.6197   12-A"
  76   1.0000      -0.009930        -0.2702   13-A"
  77   1.0000      -0.008545        -0.2325   65-A'
  78   1.0000       0.002853         0.0776   14-A"
  79   1.0000       0.005116         0.1392   66-A'
  80   1.0000       0.014056         0.3825   67-A'
  81   1.0000       0.034440         0.9372   68-A'
  82   1.0000       0.036986         1.0064   69-A'
  83   1.0000       0.047913         1.3038   15-A"
  84   1.0000       0.056664         1.5419   16-A"
  85   1.0000       0.064036         1.7425   17-A"
  86   1.0000       0.085670         2.3312   18-A"
  87   1.0000       0.100860         2.7445   70-A'
  88   0.0000       0.158696         4.3183   19-A"
  89   0.0000       0.180784         4.9194   71-A'
  90   0.0000       0.181857         4.9486   20-A"
  91   0.0000       0.182485         4.9657   72-A'
  92   0.0000       0.195207         5.3119   73-A'

                 SPIN DOWN ORBITALS
  NO   OCC          E(Eh)            E(eV)    Irrep
   0   1.0000    -318.186367     -8658.2912    1-A'
   1   1.0000     -88.044235     -2395.8054    2-A'
   2   1.0000     -88.028678     -2395.3821    3-A'
   3   1.0000     -88.009510     -2394.8605    4-A'
   4   1.0000     -87.999263     -2394.5817    5-A'
   5   1.0000     -38.015910     -1034.4655    6-A'
   6   1.0000     -33.519649      -912.1160    7-A'
   7   1.0000     -33.518828      -912.0937    8-A'
   8   1.0000     -33.516020      -912.0173    1-A"
   9   1.0000      -9.856066      -268.1972    9-A'
  10   1.0000      -9.846250      -267.9301   10-A'
  11   1.0000      -9.828734      -267.4534   11-A'
  12   1.0000      -9.827614      -267.4230   12-A'
  13   1.0000      -9.824901      -267.3492   13-A'
  14   1.0000      -9.820455      -267.2282   14-A'
  15   1.0000      -9.819645      -267.2061   15-A'
  16   1.0000      -9.818570      -267.1769   16-A'
  17   1.0000      -9.815161      -267.0841   17-A'
  18   1.0000      -9.810491      -266.9570   18-A'
  19   1.0000      -9.808669      -266.9074   19-A'
  20   1.0000      -9.802053      -266.7274   20-A'
  21   1.0000      -7.612990      -207.1600   21-A'
  22   1.0000      -7.597361      -206.7347   22-A'
  23   1.0000      -7.578676      -206.2263   23-A'
  24   1.0000      -7.568714      -205.9552   24-A'
  25   1.0000      -5.535535      -150.6296   25-A'
  26   1.0000      -5.530123      -150.4823    2-A"
  27   1.0000      -5.528880      -150.4485   26-A'
  28   1.0000      -5.520214      -150.2127   27-A'
  29   1.0000      -5.513830      -150.0389    3-A"
  30   1.0000      -5.513498      -150.0299   28-A'
  31   1.0000      -5.501740      -149.7100   29-A'
  32   1.0000      -5.495313      -149.5351   30-A'
  33   1.0000      -5.494374      -149.5095    4-A"
  34   1.0000      -5.491866      -149.4413   31-A'
  35   1.0000      -5.485616      -149.2712   32-A'
  36   1.0000      -5.483979      -149.2267    5-A"
  37   1.0000      -3.996226      -108.7428   33-A'
  38   1.0000      -2.510505       -68.3143    6-A"
  39   1.0000      -2.509913       -68.2982   34-A'
  40   1.0000      -2.507216       -68.2248   35-A'
  41   1.0000      -0.601404       -16.3650   36-A'
  42   1.0000      -0.594310       -16.1720   37-A'
  43   1.0000      -0.540550       -14.7091   38-A'
  44   1.0000      -0.517716       -14.0878   39-A'
  45   1.0000      -0.485926       -13.2227   40-A'
  46   1.0000      -0.485282       -13.2052   41-A'
  47   1.0000      -0.413278       -11.2459   42-A'
  48   1.0000      -0.411007       -11.1841   43-A'
  49   1.0000      -0.380013       -10.3407   44-A'
  50   1.0000      -0.368372       -10.0239   45-A'
  51   1.0000      -0.332816        -9.0564   46-A'
  52   1.0000      -0.320029        -8.7084   47-A'
  53   1.0000      -0.298866        -8.1326   48-A'
  54   1.0000      -0.283369        -7.7109   49-A'
  55   1.0000      -0.236820        -6.4442   50-A'
  56   1.0000      -0.232176        -6.3178   51-A'
  57   1.0000      -0.215413        -5.8617   52-A'
  58   1.0000      -0.201554        -5.4846   53-A'
  59   1.0000      -0.181442        -4.9373   54-A'
  60   1.0000      -0.178551        -4.8586   55-A'
  61   1.0000      -0.139797        -3.8041   56-A'
  62   1.0000      -0.132613        -3.6086    7-A"
  63   1.0000      -0.129090        -3.5127   57-A'
  64   1.0000      -0.121971        -3.3190    8-A"
  65   1.0000      -0.110673        -3.0116   58-A'
  66   1.0000      -0.104717        -2.8495   59-A'
  67   1.0000      -0.087567        -2.3828   60-A'
  68   1.0000      -0.076805        -2.0900   61-A'
  69   1.0000      -0.075042        -2.0420    9-A"
  70   1.0000      -0.048553        -1.3212   10-A"
  71   1.0000      -0.041132        -1.1193   62-A'
  72   1.0000      -0.029056        -0.7906   11-A"
  73   1.0000      -0.024392        -0.6637   63-A'
  74   1.0000      -0.021233        -0.5778   12-A"
  75   1.0000      -0.007992        -0.2175   64-A'
  76   1.0000       0.001766         0.0481   13-A"
  77   1.0000       0.001870         0.0509   65-A'
  78   1.0000       0.013572         0.3693   14-A"
  79   1.0000       0.014426         0.3925   66-A'
  80   1.0000       0.027528         0.7491   67-A'
  81   1.0000       0.038577         1.0497   68-A'
  82   1.0000       0.043731         1.1900   69-A'
  83   1.0000       0.051546         1.4026   15-A"
  84   1.0000       0.060143         1.6366   16-A"
  85   1.0000       0.065254         1.7757   17-A"
  86   1.0000       0.089553         2.4369   18-A"
  87   0.0000       0.132118         3.5951   70-A'
  88   0.0000       0.159079         4.3288   19-A"
  89   0.0000       0.181750         4.9457   71-A'
  90   0.0000       0.182178         4.9573   20-A"
  91   0.0000       0.183310         4.9881   72-A'

MULLIKEN ATOMIC CHARGES AND SPIN POPULATIONS
--------------------------------------------
   0 Cu:    0.137270    0.367672
   1 S :   -0.479028    0.160859
   2 C :    0.031875   -0.006780
   3 S :   -0.299157    0.140424
   4 C :   -0.009757   -0.011312
   5 S :   -0.361233    0.161063
   6 C :    0.002481   -0.008359
   7 S :   -0.516032    0.181230
   8 C :    0.081473   -0.008123
   9 C :    0.006211   -0.003613
  10 C :   -0.158478    0.007168
  11 C :    0.068163   -0.000743
  12 H :    0.032449    0.002394
  13 C :   -0.256139    0.004644
  14 H :    0.007243    0.004489
  15 H :   -0.021817    0.004459
  16 H :   -0.002351    0.001238
  17 C :   -0.019066   -0.000998
  18 C :   -0.123852    0.000523
  19 C :   -0.218835   -0.002330
  20 H :    0.044713    0.001461
  21 C :   -0.051000   -0.000367
  22 H :    0.060313    0.002622
  23 H :    0.026589    0.001011
  24 H :    0.017964    0.001368
Sum of atomic charges         :   -2.0000000

LOEWDIN ATOMIC CHARGES AND SPIN POPULATIONS
-------------------------------------------
   0 Cu:   -0.887851    0.431614
   1 S :   -0.020456    0.119322
   2 C :   -0.076887    0.004607
   3 S :    0.105097    0.111559
   4 C :    0.046156    0.004034
   5 S :    0.054522    0.127540
   6 C :    0.008672    0.005908
   7 S :   -0.050818    0.132847
   8 C :   -0.126930    0.004302
   9 C :    0.305076    0.005459
  10 C :    0.266269    0.006435
  11 C :    0.120453    0.001060
  12 H :   -0.420319    0.010973
  13 C :    0.381250    0.003930
  14 H :   -0.373484    0.005864
  15 H :   -0.415486    0.002505
  16 H :   -0.400060    0.000725
  17 C :    0.295283    0.003825
  18 C :    0.275150    0.004672
  19 C :    0.363214   -0.000842
  20 H :   -0.424239    0.005114
  21 C :    0.253805    0.000186
  22 H :   -0.448090    0.007972
  23 H :   -0.424808   -0.000195
  24 H :   -0.405520    0.000581

  Mayer bond orders larger than 0.100000
B(  0-Cu,  1-S ) :   0.7167 B(  0-Cu,  3-S ) :   0.6405 B(  0-Cu,  5-S ) :   0.6829
B(  0-Cu,  7-S ) :   0.7445 B(  1-S ,  2-C ) :   1.1192 B(  2-C ,  6-C ) :   1.2293
B(  2-C , 17-C ) :   1.3882 B(  3-S ,  4-C ) :   1.3586 B(  3-S , 13-C ) :   0.1055
B(  4-C ,  8-C ) :   1.1954 B(  4-C , 10-C ) :   1.0792 B(  4-C , 13-C ) :   0.1459
B(  5-S ,  6-C ) :   1.2634 B(  6-C , 18-C ) :   1.2278 B(  6-C , 19-C ) :   0.1006
B(  7-S ,  8-C ) :   1.0255 B(  8-C ,  9-C ) :   1.5026 B(  9-C , 13-C ) :   1.1303
B(  9-C , 14-H ) :   0.9548 B( 10-C , 11-C ) :   1.6031 B( 10-C , 12-H ) :   0.9242
B( 11-C , 13-C ) :   1.2094 B( 11-C , 15-H ) :   0.9502 B( 13-C , 16-H ) :   0.9923
B( 17-C , 19-C ) :   1.2988 B( 17-C , 20-H ) :   0.9686 B( 18-C , 21-C ) :   1.4630
B( 18-C , 22-H ) :   0.9624 B( 19-C , 21-C ) :   1.2854 B( 19-C , 23-H ) :   0.9942
B( 21-C , 24-H ) :   0.9797

FINAL SINGLE POINT ENERGY     -3686.524140492281

DIPOLE MOMENT
-------------
                                X             Y             Z
Electronic contribution:      0.11058       0.51319      -0.00000
Nuclear contribution   :      0.19288      -0.23152       0.00000
                        -----------------------------------------
Total Dipole Moment    :      0.30346       0.28167      -0.00000
                        -----------------------------------------
Magnitude (a.u.)       :      0.41404
Magnitude (Debye)      :      1.05240

Rotational constants in cm-1:     0.033413     0.004800     0.004197
Rotational constants in MHz :  1001.701191   143.894922   125.820709

                             ****ORCA TERMINATED NORMALLY****
TOTAL RUN TIME: 0 days 6 hours 11 minutes 8 seconds 981 msec
