                         Program Version 5.0.4 -  RELEASE  -
|  1> ! RIJCOSX nofrozencore ReducedPop printbasis
|  2> ! M06L ano-rcc-dzp autoaux
|  3>
|  4> %maxcore 5000
|  5> %basis
|  6> PCDTrimBas overlap
|  7> PCDTrimAuxJ Coulomb
|  8> PCDTrimAuxJK Coulomb
|  9> PCDTrimAuxC Coulomb
| 10> PCDThresh -1
| 11> end
| 12>
| 13> %basis
| 14> newgto Cu "ano-rcc-tzp" end
| 15> newgto S "ano-rcc-tzp" end
| 16> end
| 17>
| 18> %pal
| 19> nprocs 12
| 20> end
| 21>
| 22> % sym SymThresh 1e-2 end
| 23> * xyz -2 2
| 24> Cu -0.2612231197229756 -0.03385149623371159 -0.06697230340174157
| 25> S 1.2215204385497465 1.0351543740367881 1.624897090844445
| 26> C 2.926352315163718 0.7785161287791604 1.3475785383511627
| 27> S -2.0263665650894924 0.7282276655516938 0.9626881530794597
| 28> C -3.1439775319330425 0.016250793447798895 -0.17226459169988997
| 29> S 2.0395813799533484 -0.6230407220666188 -0.8045071497782361
| 30> C 3.3062904602368737 0.007886066101076205 0.2185201917560269
| 31> S -1.113593720253643 -1.1243197263444098 -1.7515348037371345
| 32> C -2.761135094364399 -0.7594950275118849 -1.3087941997216455
| 33> C -3.77224865889263 -1.2668284655153437 -2.1309512010362384
| 34> C -4.507716905184744 0.22380317203754713 0.05295458063850891
| 35> C -5.490673324234337 -0.2890536006520562 -0.7757026894735717
| 36> H -4.783846175446617 0.8149716764932545 0.9200403818423162
| 37> C -5.115446730378627 -1.0454465813163234 -1.8837578520039704
| 38> H -3.4677034227091834 -1.854268331608354 -2.9906825270239534
| 39> H -6.537686778670532 -0.10067006446207392 -0.5593542236755846
| 40> H -5.864762015399807 -1.4603375748788874 -2.551256463549566
| 41> C 3.93519810489346 1.2932145576998415 2.1806113071905133
| 42> C 4.6749561513448645 -0.20844707473714247 -0.019528230471381247
| 43> C 5.288168266729028 1.067686824085876 1.9278270183599255
| 44> H 3.6391326570390947 1.8821913551169664 3.0431719717933343
| 45> C 5.660824435755725 0.31089513483253833 0.8190147008523928
| 46> H 4.9594062808134325 -0.7988598181312465 -0.8849614103392218
| 47> H 6.039807530957039 1.4816815440804096 2.594130165419447
| 48> H 6.708940726250917 0.12297065629802317 0.6034219093863323
| 49> *
| 50>
| 51> % eprnmr
| 52> gtensor true
| 53> Nuclei = all H {aiso,adip,aorb,fgrad,rho}
| 54> Nuclei = all Cu {aiso,adip,aorb,fgrad,rho}
| 55> end
| 56>
| 57>                          ****END OF INPUT****

CARTESIAN COORDINATES (ANGSTROEM)
---------------------------------
  Cu     0.000000    0.000000   -0.271783
  S      0.000000    1.526503    1.693934
  C      0.000000    0.709401    3.237164
  S      0.000000    1.705293   -1.630837
  C      0.000000    0.714151   -3.066607
  S      0.000000   -1.526503    1.693934
  C      0.000000   -0.709401    3.237164
  S      0.000000   -1.705293   -1.630837
  C      0.000000   -0.714151   -3.066607
  C      0.000000   -1.372256   -4.300110
  C      0.000000    1.372256   -4.300110
  C      0.000000    0.696546   -5.507799
  H      0.000000    2.457175   -4.285317
  C      0.000000   -0.696546   -5.507799
  H      0.000000   -2.457175   -4.285317
  H      0.000000    1.251918   -6.440757
  H      0.000000   -1.251918   -6.440757
  C      0.000000    1.382285    4.471626
  C      0.000000   -1.382285    4.471626
  C      0.000000    0.696612    5.686081
  H      0.000000    2.467863    4.465600
  C      0.000000   -0.696612    5.686081
  H      0.000000   -2.467863    4.465600
  H      0.000000    1.250675    6.620609
  H      0.000000   -1.250675    6.620609

 Total Charge           Charge          ....   -2
 Multiplicity           Mult            ....    2
 Number of Electrons    NEL             ....  175
 Basis Dimension        Dim             ....  475

ORBITAL ENERGIES
----------------
                 SPIN UP ORBITALS
  NO   OCC          E(Eh)            E(eV)    Irrep
   0   1.0000    -318.176163     -8658.0136    1-A1
   1   1.0000     -88.020355     -2395.1556    1-B2
   2   1.0000     -88.020350     -2395.1555    2-A1
   3   1.0000     -88.009245     -2394.8533    2-B2
   4   1.0000     -88.009223     -2394.8527    3-A1
   5   1.0000     -38.020553     -1034.5918    4-A1
   6   1.0000     -33.523137      -912.2109    3-B2
   7   1.0000     -33.522611      -912.1966    5-A1
   8   1.0000     -33.510521      -911.8676    1-B1
   9   1.0000      -9.836435      -267.6630    6-A1
  10   1.0000      -9.836119      -267.6544    4-B2
  11   1.0000      -9.828352      -267.4431    7-A1
  12   1.0000      -9.828007      -267.4337    5-B2
  13   1.0000      -9.825352      -267.3614    8-A1
  14   1.0000      -9.824922      -267.3497    6-B2
  15   1.0000      -9.821622      -267.2599    9-A1
  16   1.0000      -9.821194      -267.2483    7-B2
  17   1.0000      -9.817671      -267.1524    8-B2
  18   1.0000      -9.817667      -267.1523   10-A1
  19   1.0000      -9.814457      -267.0650    9-B2
  20   1.0000      -9.814453      -267.0648   11-A1
  21   1.0000      -7.589386      -206.5177   10-B2
  22   1.0000      -7.589378      -206.5175   12-A1
  23   1.0000      -7.577575      -206.1963   11-B2
  24   1.0000      -7.577562      -206.1959   13-A1
  25   1.0000      -5.512493      -150.0026   12-B2
  26   1.0000      -5.512493      -150.0026   14-A1
  27   1.0000      -5.507161      -149.8575   13-B2
  28   1.0000      -5.507161      -149.8575   15-A1
  29   1.0000      -5.505379      -149.8090    1-A2
  30   1.0000      -5.505379      -149.8090    2-B1
  31   1.0000      -5.500761      -149.6833   14-B2
  32   1.0000      -5.500761      -149.6833   16-A1
  33   1.0000      -5.495960      -149.5527   17-A1
  34   1.0000      -5.495960      -149.5527   15-B2
  35   1.0000      -5.493602      -149.4885    2-A2
  36   1.0000      -5.493602      -149.4885    3-B1
  37   1.0000      -4.018700      -109.3544   18-A1
  38   1.0000      -2.539211       -69.0954   16-B2
  39   1.0000      -2.537969       -69.0617   19-A1
  40   1.0000      -2.513199       -68.3876    4-B1
  41   1.0000      -0.593864       -16.1599   20-A1
  42   1.0000      -0.584810       -15.9135   21-A1
  43   1.0000      -0.507515       -13.8102   22-A1
  44   1.0000      -0.501014       -13.6333   23-A1
  45   1.0000      -0.496510       -13.5107   17-B2
  46   1.0000      -0.483104       -13.1459   18-B2
  47   1.0000      -0.416794       -11.3415   19-B2
  48   1.0000      -0.399484       -10.8705   20-B2
  49   1.0000      -0.389441       -10.5972   24-A1
  50   1.0000      -0.380733       -10.3603   25-A1
  51   1.0000      -0.326513        -8.8849   26-A1
  52   1.0000      -0.314921        -8.5694   27-A1
  53   1.0000      -0.303408        -8.2561   21-B2
  54   1.0000      -0.293212        -7.9787   22-B2
  55   1.0000      -0.234876        -6.3913   28-A1
  56   1.0000      -0.225920        -6.1476   29-A1
  57   1.0000      -0.194762        -5.2997   30-A1
  58   1.0000      -0.184637        -5.0242   31-A1
  59   1.0000      -0.179223        -4.8769   23-B2
  60   1.0000      -0.171988        -4.6800   24-B2
  61   1.0000      -0.149189        -4.0596   25-B2
  62   1.0000      -0.140047        -3.8109   26-B2
  63   1.0000      -0.131530        -3.5791   32-A1
  64   1.0000      -0.121380        -3.3029    5-B1
  65   1.0000      -0.114238        -3.1086   33-A1
  66   1.0000      -0.112416        -3.0590    6-B1
  67   1.0000      -0.086104        -2.3430   34-A1
  68   1.0000      -0.070758        -1.9254   27-B2
  69   1.0000      -0.064652        -1.7593   35-A1
  70   1.0000      -0.058386        -1.5888   28-B2
  71   1.0000      -0.042979        -1.1695    7-B1
  72   1.0000      -0.037656        -1.0247   29-B2
  73   1.0000      -0.033371        -0.9081    8-B1
  74   1.0000      -0.031946        -0.8693    3-A2
  75   1.0000      -0.021477        -0.5844   36-A1
  76   1.0000      -0.014380        -0.3913    4-A2
  77   1.0000      -0.006920        -0.1883   37-A1
  78   1.0000      -0.002202        -0.0599    5-A2
  79   1.0000       0.005062         0.1378    9-B1
  80   1.0000       0.019992         0.5440   38-A1
  81   1.0000       0.030511         0.8302   39-A1
  82   1.0000       0.041496         1.1292   30-B2
  83   1.0000       0.051137         1.3915    6-A2
  84   1.0000       0.055414         1.5079    7-A2
  85   1.0000       0.062037         1.6881   10-B1
  86   1.0000       0.087141         2.3712   11-B1
  87   1.0000       0.103262         2.8099   31-B2
  88   0.0000       0.180043         4.8992   40-A1
  89   0.0000       0.183240         4.9862   41-A1
  90   0.0000       0.195802         5.3280   32-B2
  91   0.0000       0.198513         5.4018   33-B2
  92   0.0000       0.199711         5.4344   12-B1

                 SPIN DOWN ORBITALS
  NO   OCC          E(Eh)            E(eV)    Irrep
   0   1.0000    -318.175999     -8658.0091    1-A1
   1   1.0000     -88.019573     -2395.1343    1-B2
   2   1.0000     -88.019568     -2395.1342    2-A1
   3   1.0000     -88.007761     -2394.8129    2-B2
   4   1.0000     -88.007739     -2394.8123    3-A1
   5   1.0000     -38.006531     -1034.2103    4-A1
   6   1.0000     -33.509721      -911.8459    3-B2
   7   1.0000     -33.509255      -911.8332    5-A1
   8   1.0000     -33.506671      -911.7629    1-B1
   9   1.0000      -9.836540      -267.6659    6-A1
  10   1.0000      -9.836224      -267.6573    4-B2
  11   1.0000      -9.828484      -267.4466    7-A1
  12   1.0000      -9.828138      -267.4372    5-B2
  13   1.0000      -9.825344      -267.3612    8-A1
  14   1.0000      -9.824915      -267.3495    6-B2
  15   1.0000      -9.821597      -267.2593    9-A1
  16   1.0000      -9.821169      -267.2476    7-B2
  17   1.0000      -9.817651      -267.1519    8-B2
  18   1.0000      -9.817646      -267.1517   10-A1
  19   1.0000      -9.814378      -267.0628    9-B2
  20   1.0000      -9.814374      -267.0627   11-A1
  21   1.0000      -7.588843      -206.5029   10-B2
  22   1.0000      -7.588836      -206.5027   12-A1
  23   1.0000      -7.576561      -206.1687   11-B2
  24   1.0000      -7.576548      -206.1684   13-A1
  25   1.0000      -5.511831      -149.9846   12-B2
  26   1.0000      -5.511830      -149.9845   14-A1
  27   1.0000      -5.505457      -149.8111   13-B2
  28   1.0000      -5.505457      -149.8111   15-A1
  29   1.0000      -5.504788      -149.7929    1-A2
  30   1.0000      -5.504788      -149.7929    2-B1
  31   1.0000      -5.499484      -149.6486   14-B2
  32   1.0000      -5.499484      -149.6486   16-A1
  33   1.0000      -5.492853      -149.4681   17-A1
  34   1.0000      -5.492852      -149.4681   15-B2
  35   1.0000      -5.492465      -149.4576    2-A2
  36   1.0000      -5.492465      -149.4576    3-B1
  37   1.0000      -3.989062      -108.5479   18-A1
  38   1.0000      -2.502791       -68.1044    4-B1
  39   1.0000      -2.502132       -68.0865   16-B2
  40   1.0000      -2.501048       -68.0570   19-A1
  41   1.0000      -0.593683       -16.1549   20-A1
  42   1.0000      -0.584307       -15.8998   21-A1
  43   1.0000      -0.506643       -13.7865   22-A1
  44   1.0000      -0.499230       -13.5847   23-A1
  45   1.0000      -0.495737       -13.4897   17-B2
  46   1.0000      -0.481938       -13.1142   18-B2
  47   1.0000      -0.413967       -11.2646   19-B2
  48   1.0000      -0.394006       -10.7214   20-B2
  49   1.0000      -0.386879       -10.5275   24-A1
  50   1.0000      -0.376758       -10.2521   25-A1
  51   1.0000      -0.325550        -8.8587   26-A1
  52   1.0000      -0.312960        -8.5161   27-A1
  53   1.0000      -0.301976        -8.2172   21-B2
  54   1.0000      -0.290513        -7.9053   22-B2
  55   1.0000      -0.234344        -6.3768   28-A1
  56   1.0000      -0.225075        -6.1246   29-A1
  57   1.0000      -0.194159        -5.2833   30-A1
  58   1.0000      -0.183377        -4.9899   31-A1
  59   1.0000      -0.178701        -4.8627   23-B2
  60   1.0000      -0.171226        -4.6593   24-B2
  61   1.0000      -0.148433        -4.0391   25-B2
  62   1.0000      -0.138848        -3.7782   26-B2
  63   1.0000      -0.130181        -3.5424   32-A1
  64   1.0000      -0.121261        -3.2997    5-B1
  65   1.0000      -0.113261        -3.0820   33-A1
  66   1.0000      -0.112208        -3.0533    6-B1
  67   1.0000      -0.084691        -2.3046   34-A1
  68   1.0000      -0.068318        -1.8590   27-B2
  69   1.0000      -0.062483        -1.7003   35-A1
  70   1.0000      -0.047261        -1.2860   28-B2
  71   1.0000      -0.041720        -1.1353    7-B1
  72   1.0000      -0.031891        -0.8678    8-B1
  73   1.0000      -0.029499        -0.8027    3-A2
  74   1.0000      -0.015587        -0.4241   36-A1
  75   1.0000      -0.014549        -0.3959   29-B2
  76   1.0000      -0.013110        -0.3567    4-A2
  77   1.0000       0.001354         0.0368   37-A1
  78   1.0000       0.005523         0.1503    5-A2
  79   1.0000       0.015935         0.4336    9-B1
  80   1.0000       0.034720         0.9448   38-A1
  81   1.0000       0.039593         1.0774   39-A1
  82   1.0000       0.055394         1.5074    6-A2
  83   1.0000       0.055509         1.5105   30-B2
  84   1.0000       0.060570         1.6482    7-A2
  85   1.0000       0.064089         1.7440   10-B1
  86   1.0000       0.091439         2.4882   11-B1
  87   0.0000       0.132448         3.6041   31-B2
  88   0.0000       0.180626         4.9151   40-A1
  89   0.0000       0.184442         5.0189   41-A1
  90   0.0000       0.196802         5.3552   32-B2
  91   0.0000       0.199760         5.4358   12-B1

MULLIKEN ATOMIC CHARGES AND SPIN POPULATIONS
--------------------------------------------
   0 Cu:    0.170892    0.338956
   1 S :   -0.442070    0.215199
   2 C :    0.033282   -0.008617
   3 S :   -0.427075    0.130327
   4 C :    0.015801   -0.006205
   5 S :   -0.442070    0.215199
   6 C :    0.033282   -0.008617
   7 S :   -0.427075    0.130327
   8 C :    0.015801   -0.006205
   9 C :   -0.069891   -0.001930
  10 C :   -0.069891   -0.001930
  11 C :   -0.139274   -0.001106
  12 H :    0.066912    0.002235
  13 C :   -0.139274   -0.001106
  14 H :    0.066912    0.002235
  15 H :    0.031500    0.000568
  16 H :    0.031500    0.000568
  17 C :   -0.109243   -0.001730
  18 C :   -0.109243   -0.001730
  19 C :   -0.137950   -0.001157
  20 H :    0.061334    0.001483
  21 C :   -0.137950   -0.001157
  22 H :    0.061334    0.001483
  23 H :    0.031229    0.001455
  24 H :    0.031229    0.001455
Sum of atomic charges         :   -2.0000000

LOEWDIN ATOMIC CHARGES AND SPIN POPULATIONS
-------------------------------------------
   0 Cu:   -0.879418    0.392884
   1 S :   -0.047434    0.182104
   2 C :   -0.052435    0.007744
   3 S :    0.054811    0.092380
   4 C :   -0.018808    0.002097
   5 S :   -0.047434    0.182104
   6 C :   -0.052435    0.007744
   7 S :    0.054811    0.092380
   8 C :   -0.018808    0.002097
   9 C :    0.305790    0.002217
  10 C :    0.305790    0.002217
  11 C :    0.313764   -0.000497
  12 H :   -0.450809    0.006145
  13 C :    0.313764   -0.000497
  14 H :   -0.450809    0.006145
  15 H :   -0.416119   -0.000084
  16 H :   -0.416119   -0.000084
  17 C :    0.306758    0.004623
  18 C :    0.306758    0.004623
  19 C :    0.310095   -0.000243
  20 H :   -0.445182    0.006749
  21 C :    0.310095   -0.000243
  22 H :   -0.445182    0.006749
  23 H :   -0.420722    0.000323
  24 H :   -0.420722    0.000323

  Mayer bond orders larger than 0.100000
B(  0-Cu,  1-S ) :   0.5509 B(  0-Cu,  3-S ) :   0.8336 B(  0-Cu,  5-S ) :   0.5509
B(  0-Cu,  7-S ) :   0.8336 B(  1-S ,  2-C ) :   1.1947 B(  2-C ,  6-C ) :   1.2301
B(  2-C , 17-C ) :   1.3230 B(  3-S ,  4-C ) :   1.1655 B(  4-C ,  8-C ) :   1.2543
B(  4-C , 10-C ) :   1.3132 B(  5-S ,  6-C ) :   1.1947 B(  6-C , 18-C ) :   1.3230
B(  7-S ,  8-C ) :   1.1655 B(  8-C ,  9-C ) :   1.3132 B(  9-C , 13-C ) :   1.3687
B(  9-C , 14-H ) :   0.9672 B( 10-C , 11-C ) :   1.3687 B( 10-C , 12-H ) :   0.9672
B( 11-C , 13-C ) :   1.3332 B( 11-C , 15-H ) :   0.9880 B( 13-C , 16-H ) :   0.9880
B( 17-C , 19-C ) :   1.3577 B( 17-C , 20-H ) :   0.9726 B( 18-C , 21-C ) :   1.3577
B( 18-C , 22-H ) :   0.9726 B( 19-C , 21-C ) :   1.3432 B( 19-C , 23-H ) :   0.9887
B( 21-C , 24-H ) :   0.9887

FINAL SINGLE POINT ENERGY     -3686.908042089140

DIPOLE MOMENT
-------------
                                X             Y             Z
Electronic contribution:     -0.00000       0.00000      -2.74381
Nuclear contribution   :      0.00000       0.00000       2.08237
                        -----------------------------------------
Total Dipole Moment    :     -0.00000       0.00000      -0.66144
                        -----------------------------------------
Magnitude (a.u.)       :      0.66144
Magnitude (Debye)      :      1.68125

Rotational constants in cm-1:     0.033353     0.004795     0.004192
Rotational constants in MHz :   999.908261   143.737489   125.672047

                             ****ORCA TERMINATED NORMALLY****
TOTAL RUN TIME: 0 days 7 hours 3 minutes 40 seconds 427 msec
