                         Program Version 5.0.4 -  RELEASE  -
|  1> ! RIJCOSX nofrozencore ReducedPop printbasis
|  2> ! M06L ano-rcc-dzp autoaux
|  3>
|  4> %maxcore 5000
|  5> %basis
|  6> PCDTrimBas overlap
|  7> PCDTrimAuxJ Coulomb
|  8> PCDTrimAuxJK Coulomb
|  9> PCDTrimAuxC Coulomb
| 10> PCDThresh -1
| 11> end
| 12>
| 13> %basis
| 14> newgto Cu "ano-rcc-tzp" end
| 15> newgto S "ano-rcc-tzp" end
| 16> end
| 17>
| 18> %pal
| 19> nprocs 12
| 20> end
| 21>
| 22> % sym SymThresh 1e-2 end
| 23> * xyz -2 2
| 24> Cu -6.691901043035611e-07 1.1048428701691408e-07 2.1307223720195347e-06
| 25> S -1.577143804923998 1.6726970100878802 0.34565565453196406
| 26> C -2.9576290913310674 1.1597715766324983 -0.5926260842086988
| 27> S 1.663410681847565 1.2417933517305748 1.0467972476784433
| 28> C 2.9956360363114096 0.12420170204404364 1.206061704163941
| 29> S -1.6634119390777236 -1.2417972587561723 -1.046788992103157
| 30> C -2.995634992478083 -0.12420051479143561 -1.2060642538390638
| 31> S 1.577145436797379 -1.6726918053253874 -0.345664329060001
| 32> C 2.9576297872199517 -1.1597707851307595 0.5926243844252836
| 33> C 4.061609591654757 -2.0129930176190163 0.7639076146080526
| 34> C 4.135202610198391 0.4729855777599727 1.9516006619696773
| 35> C 5.21722546300071 -0.3899687611144921 2.1090500251480178
| 36> H 4.152672181968195 1.4516357631422057 2.4203463839368236
| 37> C 5.180035550646124 -1.6462941431625902 1.5088278075446049
| 38> H 4.021129667946188 -2.992007892656351 0.2973508182014625
| 39> H 6.078499127608446 -0.08399782282251159 2.7015992230479777
| 40> H 6.011703965451921 -2.3403212982966126 1.6236242596151726
| 41> C -4.061612187361829 2.012987083504385 -0.7638996742939317
| 42> C -4.135198247016619 -0.47298359685721725 -1.9516097194897075
| 43> C -5.180035951988127 1.6462919434396694 -1.508827819530811
| 44> H -4.0211361188913175 2.992001289190772 -0.29734123803709656
| 45> C -5.217223776676059 0.3899689358967874 -2.109055136484469
| 46> H -4.152667818786423 -1.4516337822394503 -2.4203554414568536
| 47> H -6.011706775706238 2.340317230303632 -1.623617891420469
| 48> H -6.078494148537426 0.0840001373265363 -2.701606696462384
| 49> *
| 50>
| 51> % eprnmr
| 52> gtensor true
| 53> Nuclei = all H {aiso,adip,aorb,fgrad,rho}
| 54> Nuclei = all Cu {aiso,adip,aorb,fgrad,rho}
| 55> end
| 56>
| 57>                          ****END OF INPUT****

CARTESIAN COORDINATES (ANGSTROEM)
---------------------------------
  Cu     0.000000    0.000000    0.000000
  S     -0.398851   -1.623433    1.615597
  C     -1.015686   -2.984233    0.711747
  S      0.398851    1.623433    1.615597
  C      1.015686    2.984233    0.711747
  S     -0.398851   -1.623433   -1.615597
  C     -1.015686   -2.984233   -0.711747
  S      0.398851    1.623433   -1.615597
  C      1.015686    2.984233   -0.711747
  C      1.530874    4.109715   -1.378053
  C      1.530874    4.109715    1.378053
  C      2.037919    5.213588    0.696420
  H      1.532013    4.098213    2.463249
  C      2.037919    5.213588   -0.696420
  H      1.532013    4.098213   -2.463249
  H      2.435275    6.062912    1.250749
  H      2.435275    6.062912   -1.250749
  C     -1.530874   -4.109715    1.378053
  C     -1.530874   -4.109715   -1.378053
  C     -2.037919   -5.213588    0.696420
  H     -1.532013   -4.098213    2.463249
  C     -2.037919   -5.213588   -0.696420
  H     -1.532013   -4.098213   -2.463249
  H     -2.435275   -6.062912    1.250749
  H     -2.435275   -6.062912   -1.250749

 Total Charge           Charge          ....   -2
 Multiplicity           Mult            ....    2
 Number of Electrons    NEL             ....  175
 Basis Dimension        Dim             ....  475

ORBITAL ENERGIES
----------------
                 SPIN UP ORBITALS
  NO   OCC          E(Eh)            E(eV)    Irrep
   0   1.0000    -318.181518     -8658.1593    1-Ag
   1   1.0000     -88.014934     -2395.0081    1-Bu
   2   1.0000     -88.014922     -2395.0078    1-Bg
   3   1.0000     -88.014920     -2395.0077    1-Au
   4   1.0000     -88.014886     -2395.0068    2-Ag
   5   1.0000     -38.026630     -1034.7572    3-Ag
   6   1.0000     -33.529759      -912.3911    2-Au
   7   1.0000     -33.528983      -912.3700    2-Bu
   8   1.0000     -33.515242      -911.9961    3-Bu
   9   1.0000      -9.833547      -267.5844    4-Bu
  10   1.0000      -9.833542      -267.5843    4-Ag
  11   1.0000      -9.833216      -267.5754    2-Bg
  12   1.0000      -9.833214      -267.5753    3-Au
  13   1.0000      -9.824943      -267.3503    5-Bu
  14   1.0000      -9.824943      -267.3503    5-Ag
  15   1.0000      -9.824512      -267.3386    3-Bg
  16   1.0000      -9.824512      -267.3386    4-Au
  17   1.0000      -9.817497      -267.1477    4-Bg
  18   1.0000      -9.817497      -267.1477    5-Au
  19   1.0000      -9.817493      -267.1476    6-Bu
  20   1.0000      -9.817492      -267.1475    6-Ag
  21   1.0000      -7.583495      -206.3574    6-Au
  22   1.0000      -7.583495      -206.3574    5-Bg
  23   1.0000      -7.583490      -206.3573    7-Bu
  24   1.0000      -7.583479      -206.3570    7-Ag
  25   1.0000      -5.506727      -149.8457    6-Bg
  26   1.0000      -5.506726      -149.8456    7-Au
  27   1.0000      -5.506726      -149.8456    8-Bu
  28   1.0000      -5.506726      -149.8456    8-Ag
  29   1.0000      -5.501434      -149.7016    7-Bg
  30   1.0000      -5.501434      -149.7016    8-Au
  31   1.0000      -5.501434      -149.7016    9-Bu
  32   1.0000      -5.501433      -149.7016    9-Ag
  33   1.0000      -5.499520      -149.6495    9-Au
  34   1.0000      -5.499519      -149.6495    8-Bg
  35   1.0000      -5.499519      -149.6495   10-Ag
  36   1.0000      -5.499519      -149.6495   10-Bu
  37   1.0000      -4.024367      -109.5086   11-Ag
  38   1.0000      -2.545706       -69.2722   10-Au
  39   1.0000      -2.544310       -69.2342   11-Bu
  40   1.0000      -2.516967       -68.4901   12-Bu
  41   1.0000      -0.588615       -16.0170   12-Ag
  42   1.0000      -0.588500       -16.0139   13-Bu
  43   1.0000      -0.504433       -13.7263   13-Ag
  44   1.0000      -0.503379       -13.6976   14-Bu
  45   1.0000      -0.488934       -13.3046   11-Au
  46   1.0000      -0.488693       -13.2980    9-Bg
  47   1.0000      -0.409060       -11.1311   12-Au
  48   1.0000      -0.406547       -11.0627   10-Bg
  49   1.0000      -0.387855       -10.5541   14-Ag
  50   1.0000      -0.381469       -10.3803   15-Bu
  51   1.0000      -0.322102        -8.7648   15-Ag
  52   1.0000      -0.319478        -8.6934   16-Bu
  53   1.0000      -0.299696        -8.1551   13-Au
  54   1.0000      -0.296387        -8.0651   11-Bg
  55   1.0000      -0.232797        -6.3347   16-Ag
  56   1.0000      -0.227859        -6.2004   17-Bu
  57   1.0000      -0.189526        -5.1573   17-Ag
  58   1.0000      -0.188706        -5.1350   18-Bu
  59   1.0000      -0.177523        -4.8306   14-Au
  60   1.0000      -0.174670        -4.7530   12-Bg
  61   1.0000      -0.146086        -3.9752   15-Au
  62   1.0000      -0.143363        -3.9011   13-Bg
  63   1.0000      -0.130918        -3.5625   18-Ag
  64   1.0000      -0.116513        -3.1705   19-Bu
  65   1.0000      -0.116419        -3.1679   19-Ag
  66   1.0000      -0.114142        -3.1060   20-Bu
  67   1.0000      -0.086455        -2.3526   20-Ag
  68   1.0000      -0.069262        -1.8847   16-Au
  69   1.0000      -0.065329        -1.7777   14-Bg
  70   1.0000      -0.062723        -1.7068   21-Bu
  71   1.0000      -0.039550        -1.0762   21-Ag
  72   1.0000      -0.037370        -1.0169   22-Bu
  73   1.0000      -0.033433        -0.9098   15-Bg
  74   1.0000      -0.028845        -0.7849   22-Ag
  75   1.0000      -0.023866        -0.6494   16-Bg
  76   1.0000      -0.018994        -0.5169   17-Au
  77   1.0000      -0.002591        -0.0705   17-Bg
  78   1.0000      -0.000941        -0.0256   23-Ag
  79   1.0000       0.001345         0.0366   24-Ag
  80   1.0000       0.018137         0.4935   25-Ag
  81   1.0000       0.018516         0.5039   23-Bu
  82   1.0000       0.033927         0.9232   18-Au
  83   1.0000       0.050890         1.3848   19-Au
  84   1.0000       0.052517         1.4290   18-Bg
  85   1.0000       0.063189         1.7195   24-Bu
  86   1.0000       0.085994         2.3400   26-Ag
  87   1.0000       0.103566         2.8182   19-Bg
  88   0.0000       0.181238         4.9317   27-Ag
  89   0.0000       0.181351         4.9348   25-Bu
  90   0.0000       0.196820         5.3557   20-Bg
  91   0.0000       0.196953         5.3594   20-Au
  92   0.0000       0.200014         5.4427   26-Bu

                 SPIN DOWN ORBITALS
  NO   OCC          E(Eh)            E(eV)    Irrep
   0   1.0000    -318.181344     -8658.1546    1-Ag
   1   1.0000     -88.013871     -2394.9792    1-Bu
   2   1.0000     -88.013859     -2394.9789    1-Bg
   3   1.0000     -88.013857     -2394.9788    1-Au
   4   1.0000     -88.013823     -2394.9779    2-Ag
   5   1.0000     -38.010795     -1034.3263    3-Ag
   6   1.0000     -33.514633      -911.9795    2-Au
   7   1.0000     -33.513899      -911.9595    2-Bu
   8   1.0000     -33.510916      -911.8784    3-Bu
   9   1.0000      -9.833659      -267.5875    4-Bu
  10   1.0000      -9.833655      -267.5873    4-Ag
  11   1.0000      -9.833328      -267.5784    2-Bg
  12   1.0000      -9.833325      -267.5784    3-Au
  13   1.0000      -9.824918      -267.3496    5-Bu
  14   1.0000      -9.824918      -267.3496    5-Ag
  15   1.0000      -9.824488      -267.3379    3-Bg
  16   1.0000      -9.824488      -267.3379    4-Au
  17   1.0000      -9.817441      -267.1462    4-Bg
  18   1.0000      -9.817441      -267.1461    5-Au
  19   1.0000      -9.817437      -267.1460    6-Bu
  20   1.0000      -9.817436      -267.1460    6-Ag
  21   1.0000      -7.582770      -206.3377    6-Au
  22   1.0000      -7.582770      -206.3377    5-Bg
  23   1.0000      -7.582767      -206.3376    7-Bu
  24   1.0000      -7.582754      -206.3372    7-Ag
  25   1.0000      -5.505807      -149.8206    6-Bg
  26   1.0000      -5.505807      -149.8206    7-Au
  27   1.0000      -5.505806      -149.8206    8-Bu
  28   1.0000      -5.505806      -149.8206    8-Ag
  29   1.0000      -5.499259      -149.6424    8-Au
  30   1.0000      -5.499259      -149.6424    7-Bg
  31   1.0000      -5.499259      -149.6424    9-Bu
  32   1.0000      -5.499258      -149.6424    9-Ag
  33   1.0000      -5.498660      -149.6261    9-Au
  34   1.0000      -5.498659      -149.6261    8-Bg
  35   1.0000      -5.498659      -149.6261   10-Ag
  36   1.0000      -5.498659      -149.6261   10-Bu
  37   1.0000      -3.990633      -108.5907   11-Ag
  38   1.0000      -2.505354       -68.1741   11-Bu
  39   1.0000      -2.503646       -68.1277   10-Au
  40   1.0000      -2.502164       -68.0873   12-Bu
  41   1.0000      -0.588250       -16.0071   12-Ag
  42   1.0000      -0.588145       -16.0042   13-Bu
  43   1.0000      -0.503115       -13.6905   13-Ag
  44   1.0000      -0.502129       -13.6636   14-Bu
  45   1.0000      -0.487904       -13.2765   11-Au
  46   1.0000      -0.487686       -13.2706    9-Bg
  47   1.0000      -0.405078       -11.0227   12-Au
  48   1.0000      -0.402470       -10.9518   10-Bg
  49   1.0000      -0.384649       -10.4668   14-Ag
  50   1.0000      -0.378327       -10.2948   15-Bu
  51   1.0000      -0.320884        -8.7317   15-Ag
  52   1.0000      -0.317949        -8.6518   16-Bu
  53   1.0000      -0.297911        -8.1066   13-Au
  54   1.0000      -0.294188        -8.0053   11-Bg
  55   1.0000      -0.232229        -6.3193   16-Ag
  56   1.0000      -0.227166        -6.1815   17-Bu
  57   1.0000      -0.188562        -5.1310   17-Ag
  58   1.0000      -0.187825        -5.1110   18-Bu
  59   1.0000      -0.176994        -4.8163   14-Au
  60   1.0000      -0.173800        -4.7294   12-Bg
  61   1.0000      -0.145424        -3.9572   15-Au
  62   1.0000      -0.141914        -3.8617   13-Bg
  63   1.0000      -0.129679        -3.5287   18-Ag
  64   1.0000      -0.116299        -3.1647   19-Bu
  65   1.0000      -0.116183        -3.1615   19-Ag
  66   1.0000      -0.113258        -3.0819   20-Bu
  67   1.0000      -0.085018        -2.3135   20-Ag
  68   1.0000      -0.067781        -1.8444   16-Au
  69   1.0000      -0.061038        -1.6609   21-Bu
  70   1.0000      -0.051186        -1.3929   14-Bg
  71   1.0000      -0.037471        -1.0196   21-Ag
  72   1.0000      -0.036427        -0.9912   22-Bu
  73   1.0000      -0.022946        -0.6244   15-Bg
  74   1.0000      -0.021986        -0.5983   22-Ag
  75   1.0000      -0.018108        -0.4927   17-Au
  76   1.0000      -0.002098        -0.0571   16-Bg
  77   1.0000       0.007363         0.2004   17-Bg
  78   1.0000       0.009792         0.2664   23-Ag
  79   1.0000       0.013774         0.3748   24-Ag
  80   1.0000       0.025297         0.6884   23-Bu
  81   1.0000       0.033766         0.9188   25-Ag
  82   1.0000       0.041578         1.1314   18-Au
  83   1.0000       0.054358         1.4792   19-Au
  84   1.0000       0.058028         1.5790   18-Bg
  85   1.0000       0.065102         1.7715   24-Bu
  86   1.0000       0.090156         2.4533   26-Ag
  87   0.0000       0.136439         3.7127   19-Bg
  88   0.0000       0.182305         4.9608   27-Ag
  89   0.0000       0.182401         4.9634   25-Bu
  90   0.0000       0.198636         5.4052   20-Bg
  91   0.0000       0.198798         5.4096   20-Au

MULLIKEN ATOMIC CHARGES AND SPIN POPULATIONS
--------------------------------------------
   0 Cu:    0.149943    0.375277
   1 S :   -0.427680    0.162561
   2 C :    0.024185   -0.007153
   3 S :   -0.427680    0.162561
   4 C :    0.024185   -0.007153
   5 S :   -0.427680    0.162561
   6 C :    0.024185   -0.007153
   7 S :   -0.427680    0.162561
   8 C :    0.024185   -0.007153
   9 C :   -0.093889   -0.001643
  10 C :   -0.093889   -0.001643
  11 C :   -0.135639   -0.000486
  12 H :    0.066659    0.001882
  13 C :   -0.135639   -0.000486
  14 H :    0.066659    0.001882
  15 H :    0.028878    0.001020
  16 H :    0.028878    0.001020
  17 C :   -0.093889   -0.001643
  18 C :   -0.093889   -0.001643
  19 C :   -0.135639   -0.000486
  20 H :    0.066659    0.001882
  21 C :   -0.135639   -0.000486
  22 H :    0.066659    0.001882
  23 H :    0.028878    0.001020
  24 H :    0.028878    0.001020
Sum of atomic charges         :   -2.0000000

LOEWDIN ATOMIC CHARGES AND SPIN POPULATIONS
-------------------------------------------
   0 Cu:   -0.887694    0.441300
   1 S :    0.006204    0.124124
   2 C :   -0.037678    0.005282
   3 S :    0.006204    0.124124
   4 C :   -0.037678    0.005282
   5 S :    0.006204    0.124124
   6 C :   -0.037678    0.005282
   7 S :    0.006204    0.124124
   8 C :   -0.037678    0.005282
   9 C :    0.307741    0.003799
  10 C :    0.307741    0.003799
  11 C :    0.310022    0.000113
  12 H :   -0.448586    0.006110
  13 C :    0.310022    0.000113
  14 H :   -0.448586    0.006110
  15 H :   -0.415779    0.000246
  16 H :   -0.415779    0.000246
  17 C :    0.307741    0.003799
  18 C :    0.307741    0.003799
  19 C :    0.310022    0.000113
  20 H :   -0.448586    0.006110
  21 C :    0.310022    0.000113
  22 H :   -0.448586    0.006110
  23 H :   -0.415779    0.000246
  24 H :   -0.415779    0.000246

  Mayer bond orders larger than 0.100000
B(  0-Cu,  1-S ) :   0.6956 B(  0-Cu,  3-S ) :   0.6956 B(  0-Cu,  5-S ) :   0.6956
B(  0-Cu,  7-S ) :   0.6956 B(  1-S ,  2-C ) :   1.1812 B(  2-C ,  6-C ) :   1.2452
B(  2-C , 17-C ) :   1.3191 B(  3-S ,  4-C ) :   1.1812 B(  4-C ,  8-C ) :   1.2452
B(  4-C , 10-C ) :   1.3191 B(  5-S ,  6-C ) :   1.1812 B(  6-C , 18-C ) :   1.3191
B(  7-S ,  8-C ) :   1.1812 B(  8-C ,  9-C ) :   1.3191 B(  9-C , 13-C ) :   1.3617
B(  9-C , 14-H ) :   0.9690 B( 10-C , 11-C ) :   1.3617 B( 10-C , 12-H ) :   0.9690
B( 11-C , 13-C ) :   1.3395 B( 11-C , 15-H ) :   0.9896 B( 13-C , 16-H ) :   0.9896
B( 17-C , 19-C ) :   1.3617 B( 17-C , 20-H ) :   0.9690 B( 18-C , 21-C ) :   1.3617
B( 18-C , 22-H ) :   0.9690 B( 19-C , 21-C ) :   1.3395 B( 19-C , 23-H ) :   0.9896
B( 21-C , 24-H ) :   0.9896

FINAL SINGLE POINT ENERGY     -3686.927582854972

DIPOLE MOMENT
-------------
                                X             Y             Z
Electronic contribution:     -0.00000      -0.00000       0.00000
Nuclear contribution   :      0.00000      -0.00000       0.00000
                        -----------------------------------------
Total Dipole Moment    :     -0.00000      -0.00000       0.00000
                        -----------------------------------------
Magnitude (a.u.)       :      0.00000
Magnitude (Debye)      :      0.00000

Rotational constants in cm-1:     0.033065     0.004796     0.004200
Rotational constants in MHz :   991.249534   143.794321   125.919612

                             ****ORCA TERMINATED NORMALLY****
TOTAL RUN TIME: 0 days 5 hours 47 minutes 42 seconds 215 msec
