                         Program Version 5.0.4 -  RELEASE  -
|  1> ! RIJCOSX nofrozencore ReducedPop printbasis
|  2> ! M06L ano-rcc-dzp autoaux
|  3>
|  4> %maxcore 5000
|  5> %basis
|  6> PCDTrimBas overlap
|  7> PCDTrimAuxJ Coulomb
|  8> PCDTrimAuxJK Coulomb
|  9> PCDTrimAuxC Coulomb
| 10> PCDThresh -1
| 11> end
| 12>
| 13> %basis
| 14> newgto Cu "ano-rcc-tzp" end
| 15> newgto S "ano-rcc-tzp" end
| 16> end
| 17>
| 18> %pal
| 19> nprocs 12
| 20> end
| 21>
| 22> % sym SymThresh 1e-2 end
| 23> * xyz -2 2
| 24> Cu 1.3006547373671497e-05 5.398566269570151e-06 -3.6993523283810843e-06
| 25> S 0.5716337786909386 0.04219720149541243 -2.245783329331544
| 26> C -0.806873484641205 -0.6430953190042196 -3.0617729522390813
| 27> S 2.0262415968283918 0.9512829691484894 0.6011996891053438
| 28> C 1.9516522203022064 1.080864282991552 2.336883257674552
| 29> S -2.0262660330782007 -0.9512980460540794 -0.6012454335761912
| 30> C -1.9514545940484074 -1.0808298918645172 -2.337448194940264
| 31> S -0.571601831391276 -0.04217723540209429 2.2458458571266586
| 32> C 0.8073756942996055 0.6433212355773175 3.061816646186134
| 33> C 0.8211642616186596 0.7795354556193143 4.451452639591111
| 34> C 3.037054132344254 1.6269449793085178 3.0487738758901903
| 35> C 2.984462947221277 1.7324793372426082 4.423885525909853
| 36> H 3.7698762548394043 1.9061783041002476 2.5740462525550187
| 37> C 1.8882194861783494 1.318988601503879 5.179107549693501
| 38> H -0.19250238213198373 0.39068526870523945 5.080300899355099
| 39> H 4.163936808866383 2.3203832124563806 5.138678401323851
| 40> H 1.8654945082325642 1.371622135019601 5.848393385885343
| 41> C -0.80684994483747 -0.7740652890114529 -4.460556153054055
| 42> C -3.022865615000162 -1.6215132616006374 -3.0576945966188247
| 43> C -1.8895770758869888 -1.3153633436655674 -5.133988397742375
| 44> H 0.009021700576386868 -0.4609924453665502 -4.965648432352383
| 45> C -3.0198014448388224 -1.7501172474536089 -4.4455534459651656
| 46> H -3.9499343912235427 -1.974894275189949 -2.458545062759978
| 47> H -1.8463518325885235 -1.4147358231119613 -6.3991157296423955
| 48> H -3.731309853092177 -2.1047763818751313 -4.876861014794134
| 49> *
| 50>
| 51> % eprnmr
| 52> gtensor true
| 53> Nuclei = all H {aiso,adip,aorb,fgrad,rho}
| 54> Nuclei = all Cu {aiso,adip,aorb,fgrad,rho}
| 55> end
| 56>
| 57>                          ****END OF INPUT****

CARTESIAN COORDINATES (ANGSTROEM)
---------------------------------
  Cu    -0.000003    0.000014    0.000000
  S     -2.243435    0.582311    0.000000
  C     -3.091238   -0.939851    0.000000
  S      0.645450    2.226079    0.000000
  C      2.386881    2.177392    0.000000
  S     -0.645497   -2.226107    0.000000
  C     -2.387444   -2.177187    0.000000
  S      2.243499   -0.582275    0.000000
  C      3.091292    0.940401    0.000000
  C      4.487043    0.981764    0.000000
  C      3.124111    3.377217    0.000000
  C      4.503910    3.345752    0.000000
  H      2.662483    4.169218    0.000000
  C      5.239726    2.161835    0.000000
  H      5.097655   -0.114287    0.000000
  H      5.245992    4.648454    0.000000
  H      5.911352    2.149659    0.000000
  C     -4.495890   -0.966291    0.000000
  C     -3.132777   -3.361878    0.000000
  C     -5.194446   -2.162465    0.000000
  H     -4.986300   -0.084091    0.000000
  C     -4.526397   -3.384787    0.000000
  H     -2.550205   -4.363838    0.000000
  H     -6.463992   -2.139156    0.000000
  H     -4.974167   -4.170634    0.000000

 Total Charge           Charge          ....   -2
 Multiplicity           Mult            ....    2
 Number of Electrons    NEL             ....  175
 Basis Dimension        Dim             ....  475

ORBITAL ENERGIES
----------------
                 SPIN UP ORBITALS
  NO   OCC          E(Eh)            E(eV)    Irrep
   0   1.0000    -318.184322     -8658.2356    1-A'
   1   1.0000     -88.019279     -2395.1264    2-A'
   2   1.0000     -88.017690     -2395.0831    3-A'
   3   1.0000     -88.016704     -2395.0563    4-A'
   4   1.0000     -88.016449     -2395.0494    5-A'
   5   1.0000     -38.029555     -1034.8368    6-A'
   6   1.0000     -33.532710      -912.4714    7-A'
   7   1.0000     -33.531859      -912.4483    8-A'
   8   1.0000     -33.518042      -912.0723    1-A"
   9   1.0000      -9.860589      -268.3203    9-A'
  10   1.0000      -9.842443      -267.8265   10-A'
  11   1.0000      -9.839280      -267.7404   11-A'
  12   1.0000      -9.837446      -267.6905   12-A'
  13   1.0000      -9.835862      -267.6474   13-A'
  14   1.0000      -9.835025      -267.6246   14-A'
  15   1.0000      -9.833883      -267.5936   15-A'
  16   1.0000      -9.825935      -267.3773   16-A'
  17   1.0000      -9.811623      -266.9878   17-A'
  18   1.0000      -9.808799      -266.9110   18-A'
  19   1.0000      -9.805833      -266.8303   19-A'
  20   1.0000      -9.802642      -266.7434   20-A'
  21   1.0000      -7.587921      -206.4778   21-A'
  22   1.0000      -7.586362      -206.4354   22-A'
  23   1.0000      -7.585325      -206.4072   23-A'
  24   1.0000      -7.585105      -206.4012   24-A'
  25   1.0000      -5.511164      -149.9664   25-A'
  26   1.0000      -5.509562      -149.9228   26-A'
  27   1.0000      -5.508608      -149.8968   27-A'
  28   1.0000      -5.508331      -149.8893   28-A'
  29   1.0000      -5.505738      -149.8187   29-A'
  30   1.0000      -5.504261      -149.7786   30-A'
  31   1.0000      -5.504035      -149.7724    2-A"
  32   1.0000      -5.503276      -149.7517   31-A'
  33   1.0000      -5.503085      -149.7466   32-A'
  34   1.0000      -5.502441      -149.7290    3-A"
  35   1.0000      -5.501298      -149.6979    4-A"
  36   1.0000      -5.501113      -149.6929    5-A"
  37   1.0000      -4.027141      -109.5841   33-A'
  38   1.0000      -2.548610       -69.3512   34-A'
  39   1.0000      -2.547056       -69.3089   35-A'
  40   1.0000      -2.519566       -68.5609    6-A"
  41   1.0000      -0.598034       -16.2733   36-A'
  42   1.0000      -0.592584       -16.1250   37-A'
  43   1.0000      -0.523556       -14.2467   38-A'
  44   1.0000      -0.509307       -13.8589   39-A'
  45   1.0000      -0.496484       -13.5100   40-A'
  46   1.0000      -0.492805       -13.4099   41-A'
  47   1.0000      -0.426526       -11.6064   42-A'
  48   1.0000      -0.413841       -11.2612   43-A'
  49   1.0000      -0.390928       -10.6377   44-A'
  50   1.0000      -0.384787       -10.4706   45-A'
  51   1.0000      -0.331392        -9.0176   46-A'
  52   1.0000      -0.325290        -8.8516   47-A'
  53   1.0000      -0.322017        -8.7625   48-A'
  54   1.0000      -0.306217        -8.3326   49-A'
  55   1.0000      -0.242984        -6.6119   50-A'
  56   1.0000      -0.234198        -6.3729   51-A'
  57   1.0000      -0.195101        -5.3090   52-A'
  58   1.0000      -0.192135        -5.2283   53-A'
  59   1.0000      -0.174564        -4.7501   54-A'
  60   1.0000      -0.172065        -4.6821   55-A'
  61   1.0000      -0.159565        -4.3420   56-A'
  62   1.0000      -0.150441        -4.0937   57-A'
  63   1.0000      -0.123989        -3.3739   58-A'
  64   1.0000      -0.121348        -3.3021    7-A"
  65   1.0000      -0.119306        -3.2465    8-A"
  66   1.0000      -0.105029        -2.8580   59-A'
  67   1.0000      -0.087569        -2.3829   60-A'
  68   1.0000      -0.069776        -1.8987   61-A'
  69   1.0000      -0.068104        -1.8532   62-A'
  70   1.0000      -0.062457        -1.6995   63-A'
  71   1.0000      -0.042368        -1.1529    9-A"
  72   1.0000      -0.040217        -1.0944   10-A"
  73   1.0000      -0.034233        -0.9315   64-A'
  74   1.0000      -0.032125        -0.8742   65-A'
  75   1.0000      -0.029489        -0.8024   11-A"
  76   1.0000      -0.022547        -0.6135   12-A"
  77   1.0000      -0.005938        -0.1616   13-A"
  78   1.0000      -0.003600        -0.0980   66-A'
  79   1.0000      -0.001592        -0.0433   14-A"
  80   1.0000       0.015488         0.4214   67-A'
  81   1.0000       0.016099         0.4381   68-A'
  82   1.0000       0.031894         0.8679   69-A'
  83   1.0000       0.046995         1.2788   15-A"
  84   1.0000       0.049402         1.3443   16-A"
  85   1.0000       0.059692         1.6243   17-A"
  86   1.0000       0.084748         2.3061   18-A"
  87   1.0000       0.101925         2.7735   70-A'
  88   0.0000       0.168081         4.5737   71-A'
  89   0.0000       0.177870         4.8401   72-A'
  90   0.0000       0.196851         5.3566   73-A'
  91   0.0000       0.197102         5.3634   19-A"
  92   0.0000       0.198686         5.4065   74-A'

                 SPIN DOWN ORBITALS
  NO   OCC          E(Eh)            E(eV)    Irrep
   0   1.0000    -318.184150     -8658.2309    1-A'
   1   1.0000     -88.018244     -2395.0982    2-A'
   2   1.0000     -88.016636     -2395.0544    3-A'
   3   1.0000     -88.015628     -2395.0270    4-A'
   4   1.0000     -88.015356     -2395.0196    5-A'
   5   1.0000     -38.013726     -1034.4061    6-A'
   6   1.0000     -33.517585      -912.0598    7-A'
   7   1.0000     -33.516767      -912.0376    8-A'
   8   1.0000     -33.513739      -911.9552    1-A"
   9   1.0000      -9.860557      -268.3194    9-A'
  10   1.0000      -9.842423      -267.8259   10-A'
  11   1.0000      -9.839399      -267.7437   11-A'
  12   1.0000      -9.837386      -267.6889   12-A'
  13   1.0000      -9.835976      -267.6505   13-A'
  14   1.0000      -9.835134      -267.6276   14-A'
  15   1.0000      -9.833997      -267.5967   15-A'
  16   1.0000      -9.825873      -267.3756   16-A'
  17   1.0000      -9.811570      -266.9864   17-A'
  18   1.0000      -9.808774      -266.9103   18-A'
  19   1.0000      -9.805785      -266.8290   19-A'
  20   1.0000      -9.802618      -266.7428   20-A'
  21   1.0000      -7.587215      -206.4586   21-A'
  22   1.0000      -7.585642      -206.4158   22-A'
  23   1.0000      -7.584592      -206.3872   23-A'
  24   1.0000      -7.584361      -206.3810   24-A'
  25   1.0000      -5.510268      -149.9420   25-A'
  26   1.0000      -5.508646      -149.8979   26-A'
  27   1.0000      -5.507676      -149.8715   27-A'
  28   1.0000      -5.507383      -149.8635   28-A'
  29   1.0000      -5.503576      -149.7599   29-A'
  30   1.0000      -5.503244      -149.7509    2-A"
  31   1.0000      -5.502055      -149.7185   30-A'
  32   1.0000      -5.501638      -149.7072    3-A"
  33   1.0000      -5.501018      -149.6903   31-A'
  34   1.0000      -5.500798      -149.6843   32-A'
  35   1.0000      -5.500482      -149.6757    4-A"
  36   1.0000      -5.500285      -149.6704    5-A"
  37   1.0000      -3.993480      -108.6681   33-A'
  38   1.0000      -2.507892       -68.2432    6-A"
  39   1.0000      -2.506639       -68.2091   34-A'
  40   1.0000      -2.505056       -68.1660   35-A'
  41   1.0000      -0.597737       -16.2653   36-A'
  42   1.0000      -0.592233       -16.1155   37-A'
  43   1.0000      -0.522694       -14.2232   38-A'
  44   1.0000      -0.508114       -13.8265   39-A'
  45   1.0000      -0.495361       -13.4794   40-A'
  46   1.0000      -0.491729       -13.3806   41-A'
  47   1.0000      -0.423162       -11.5148   42-A'
  48   1.0000      -0.409989       -11.1564   43-A'
  49   1.0000      -0.387256       -10.5378   44-A'
  50   1.0000      -0.381234       -10.3739   45-A'
  51   1.0000      -0.330725        -8.9995   46-A'
  52   1.0000      -0.323694        -8.8082   47-A'
  53   1.0000      -0.319952        -8.7063   48-A'
  54   1.0000      -0.304182        -8.2772   49-A'
  55   1.0000      -0.241693        -6.5768   50-A'
  56   1.0000      -0.233124        -6.3436   51-A'
  57   1.0000      -0.194224        -5.2851   52-A'
  58   1.0000      -0.191210        -5.2031   53-A'
  59   1.0000      -0.173988        -4.7345   54-A'
  60   1.0000      -0.171665        -4.6712   55-A'
  61   1.0000      -0.158618        -4.3162   56-A'
  62   1.0000      -0.149098        -4.0572   57-A'
  63   1.0000      -0.122679        -3.3383   58-A'
  64   1.0000      -0.121161        -3.2969    7-A"
  65   1.0000      -0.119120        -3.2414    8-A"
  66   1.0000      -0.103115        -2.8059   59-A'
  67   1.0000      -0.086012        -2.3405   60-A'
  68   1.0000      -0.068135        -1.8541   61-A'
  69   1.0000      -0.062867        -1.7107   62-A'
  70   1.0000      -0.052643        -1.4325   63-A'
  71   1.0000      -0.040684        -1.1071    9-A"
  72   1.0000      -0.039025        -1.0619   10-A"
  73   1.0000      -0.026497        -0.7210   11-A"
  74   1.0000      -0.025308        -0.6887   64-A'
  75   1.0000      -0.021673        -0.5898   12-A"
  76   1.0000      -0.005399        -0.1469   65-A'
  77   1.0000       0.003759         0.1023   13-A"
  78   1.0000       0.007167         0.1950   66-A'
  79   1.0000       0.010673         0.2904   14-A"
  80   1.0000       0.022883         0.6227   67-A'
  81   1.0000       0.031263         0.8507   68-A'
  82   1.0000       0.040248         1.0952   69-A'
  83   1.0000       0.049910         1.3581   15-A"
  84   1.0000       0.054890         1.4936   16-A"
  85   1.0000       0.061587         1.6759   17-A"
  86   1.0000       0.088909         2.4193   18-A"
  87   0.0000       0.134844         3.6693   70-A'
  88   0.0000       0.169473         4.6116   71-A'
  89   0.0000       0.179427         4.8824   72-A'
  90   0.0000       0.197149         5.3647   19-A"
  91   0.0000       0.198062         5.3895   73-A'

MULLIKEN ATOMIC CHARGES AND SPIN POPULATIONS
--------------------------------------------
   0 Cu:    0.139871    0.375591
   1 S :   -0.426259    0.160653
   2 C :    0.014497   -0.007405
   3 S :   -0.424401    0.156560
   4 C :    0.003083   -0.007066
   5 S :   -0.417263    0.166859
   6 C :    0.027684   -0.007571
   7 S :   -0.413960    0.164175
   8 C :    0.027646   -0.007381
   9 C :   -0.087837   -0.000871
  10 C :   -0.231360   -0.002419
  11 C :   -0.157274   -0.000990
  12 H :    0.320628    0.002902
  13 C :   -0.946911   -0.000244
  14 H :   -0.056372    0.001266
  15 H :   -0.171856    0.004390
  16 H :    1.063514   -0.000028
  17 C :   -0.132108   -0.002051
  18 C :   -0.088868   -0.001318
  19 C :   -0.122519   -0.001373
  20 H :    0.164871    0.002517
  21 C :   -0.294162   -0.000448
  22 H :   -0.006297    0.001625
  23 H :   -0.105083    0.002192
  24 H :    0.320735    0.000436
Sum of atomic charges         :   -2.0000000

LOEWDIN ATOMIC CHARGES AND SPIN POPULATIONS
-------------------------------------------
   0 Cu:   -0.892636    0.441573
   1 S :    0.016440    0.122526
   2 C :   -0.025553    0.005026
   3 S :    0.024976    0.120394
   4 C :   -0.006812    0.004958
   5 S :    0.005933    0.126865
   6 C :   -0.047328    0.005351
   7 S :   -0.000128    0.124614
   8 C :   -0.055797    0.005378
   9 C :    0.326894    0.003728
  10 C :    0.380695    0.003770
  11 C :    0.312943    0.000358
  12 H :   -0.660222    0.005708
  13 C :    0.603573   -0.000073
  14 H :   -0.290736    0.006395
  15 H :   -0.168499    0.002979
  16 H :   -1.026586   -0.000292
  17 C :    0.328984    0.003810
  18 C :    0.305081    0.003886
  19 C :    0.282093   -0.000165
  20 H :   -0.535829    0.006042
  21 C :    0.402563   -0.000049
  22 H :   -0.371286    0.006454
  23 H :   -0.267823    0.000865
  24 H :   -0.640939   -0.000098

  Mayer bond orders larger than 0.100000
B(  0-Cu,  1-S ) :   0.7010 B(  0-Cu,  3-S ) :   0.6952 B(  0-Cu,  5-S ) :   0.7061
B(  0-Cu,  7-S ) :   0.7055 B(  1-S ,  2-C ) :   1.1878 B(  2-C ,  6-C ) :   1.2446
B(  2-C , 17-C ) :   1.3217 B(  3-S ,  4-C ) :   1.1947 B(  4-C ,  8-C ) :   1.2430
B(  4-C , 10-C ) :   1.3344 B(  5-S ,  6-C ) :   1.1811 B(  6-C , 18-C ) :   1.3202
B(  7-S ,  8-C ) :   1.1793 B(  8-C ,  9-C ) :   1.3284 B(  9-C , 13-C ) :   1.4616
B(  9-C , 14-H ) :   0.9989 B( 10-C , 11-C ) :   1.4195 B( 10-C , 12-H ) :   0.7800
B( 11-C , 13-C ) :   1.4669 B( 11-C , 15-H ) :   0.9575 B( 13-C , 16-H ) :  -0.4635
B( 17-C , 19-C ) :   1.3768 B( 17-C , 20-H ) :   0.9098 B( 18-C , 21-C ) :   1.3925
B( 18-C , 22-H ) :   0.9978 B( 19-C , 21-C ) :   1.3767 B( 19-C , 23-H ) :   1.0101
B( 21-C , 24-H ) :   0.7735

FINAL SINGLE POINT ENERGY     -3686.516272337948

DIPOLE MOMENT
-------------
                                X             Y             Z
Electronic contribution:     -0.14045      -0.35211       0.00000
Nuclear contribution   :     -0.05363       0.08936       0.00000
                        -----------------------------------------
Total Dipole Moment    :     -0.19408      -0.26275       0.00000
                        -----------------------------------------
Magnitude (a.u.)       :      0.32666
Magnitude (Debye)      :      0.83030

Rotational constants in cm-1:     0.033412     0.004804     0.004200
Rotational constants in MHz :  1001.673554   144.006381   125.905481

                             ****ORCA TERMINATED NORMALLY****
TOTAL RUN TIME: 0 days 6 hours 54 minutes 22 seconds 378 msec
