                         Program Version 5.0.4 -  RELEASE  -
|  1> ! RIJCOSX nofrozencore ReducedPop printbasis
|  2> ! M06L ano-rcc-dzp autoaux
|  3>
|  4> %maxcore 5000
|  5> %basis
|  6> PCDTrimBas overlap
|  7> PCDTrimAuxJ Coulomb
|  8> PCDTrimAuxJK Coulomb
|  9> PCDTrimAuxC Coulomb
| 10> PCDThresh -1
| 11> end
| 12>
| 13> %basis
| 14> newgto Cu "ano-rcc-tzp" end
| 15> newgto S "ano-rcc-tzp" end
| 16> end
| 17>
| 18> %pal
| 19> nprocs 12
| 20> end
| 21>
| 22> % sym SymThresh 1e-2 end
| 23> * xyz -2 2
| 24> Cu -0.04482242094016729 0.014558112931858791 0.05062829399580532
| 25> S 0.29078222576169005 -2.1001488586201194 0.938163896465691
| 26> C 1.6596665855510584 -1.916726125821315 2.0028146047633317
| 27> S -1.7796817665476659 -0.7489280336163964 -1.2834210633662895
| 28> C -2.2667150456897547 0.6456960651399568 -2.2101308002705338
| 29> S 1.70680839523685 0.7725969641876458 1.3657337628992858
| 30> C 2.2834923484618592 -0.6511452547045795 2.1911803241608965
| 31> S -0.3636692055452064 2.1238222091597296 -0.8558358257469741
| 32> C -1.6428944669590302 1.9112786200541632 -2.021759225183171
| 33> C -2.080078214270716 2.992454125789603 -2.8027172356019316
| 34> C -3.2878879453958314 0.5420877551996615 -3.167437109871698
| 35> C -3.7046652802375855 1.627728413734794 -3.9301496005230616
| 36> H -3.7561353069507875 -0.4272299339526191 -3.305016796810956
| 37> C -3.0942796161539534 2.866057926056705 -3.7458329555075838
| 38> H -1.5971961839759674 3.9527637616677174 -2.653081497564309
| 39> H -4.49826101100385 1.5044763733153261 -4.662941782149611
| 40> H -3.402030220079327 3.7284782676013615 -4.331911770707865
| 41> C 2.1756058296043177 -3.0234808447859987 2.6948145032778883
| 42> C 3.383431063046416 -0.5731199176829158 3.059519611145961
| 43> C 3.267183686105572 -2.9222163602495788 3.550532525433376
| 44> H 1.6943729914847365 -3.9843263347817097 2.5433173242570435
| 45> C 3.877576478436809 -1.6838891631491901 3.7348411188753814
| 46> H 3.8533418983833725 0.39565748295594694 3.195220353621201
| 47> H 3.637197150559201 -3.8048604194340907 4.066282909905662
| 48> H 4.733443494023953 -1.5808635765404675 4.397295354278013
| 49> *
| 50>
| 51> % eprnmr
| 52> gtensor true
| 53> Nuclei = all H {aiso,adip,aorb,fgrad,rho}
| 54> Nuclei = all Cu {aiso,adip,aorb,fgrad,rho}
| 55> end
| 56>
| 57>                          ****END OF INPUT****

CARTESIAN COORDINATES (ANGSTROEM)
---------------------------------
  Cu     0.000000    0.000000    0.069168
  S     -1.615597   -1.661931    0.056233
  C     -0.711747   -3.151642   -0.012943
  S     -1.615597    1.661931    0.056233
  C     -0.711747    3.151642   -0.012943
  S      1.615597   -1.661931    0.056233
  C      0.711747   -3.151642   -0.012943
  S      1.615597    1.661931    0.056233
  C      0.711747    3.151642   -0.012943
  C      1.378053    4.385461   -0.073713
  C     -1.378053    4.385461   -0.073713
  C     -0.696420    5.596188   -0.133412
  H     -2.463249    4.375043   -0.074991
  C      0.696420    5.596188   -0.133412
  H      2.463249    4.375043   -0.074991
  H     -1.250749    6.530201   -0.181456
  H      1.250749    6.530201   -0.181456
  C     -1.378053   -4.385461   -0.073713
  C      1.378053   -4.385461   -0.073713
  C     -0.696420   -5.596188   -0.133412
  H     -2.463249   -4.375043   -0.074991
  C      0.696420   -5.596188   -0.133412
  H      2.463249   -4.375043   -0.074991
  H     -1.250749   -6.530201   -0.181456
  H      1.250749   -6.530201   -0.181456

 Total Charge           Charge          ....   -2
 Multiplicity           Mult            ....    2
 Number of Electrons    NEL             ....  175
 Basis Dimension        Dim             ....  475

ORBITAL ENERGIES
----------------
                 SPIN UP ORBITALS
  NO   OCC          E(Eh)            E(eV)    Irrep
   0   1.0000    -318.181429     -8658.1569    1-A1
   1   1.0000     -88.014395     -2394.9934    1-B2
   2   1.0000     -88.014383     -2394.9931    1-A2
   3   1.0000     -88.014379     -2394.9930    1-B1
   4   1.0000     -88.014345     -2394.9921    2-A1
   5   1.0000     -38.026645     -1034.7576    3-A1
   6   1.0000     -33.529789      -912.3919    2-B1
   7   1.0000     -33.528943      -912.3689    2-B2
   8   1.0000     -33.515147      -911.9935    4-A1
   9   1.0000      -9.832795      -267.5639    3-B2
  10   1.0000      -9.832789      -267.5638    5-A1
  11   1.0000      -9.832463      -267.5549    2-A2
  12   1.0000      -9.832460      -267.5548    3-B1
  13   1.0000      -9.824028      -267.3254    4-B2
  14   1.0000      -9.824028      -267.3254    6-A1
  15   1.0000      -9.823598      -267.3137    3-A2
  16   1.0000      -9.823598      -267.3137    4-B1
  17   1.0000      -9.816649      -267.1246    4-A2
  18   1.0000      -9.816649      -267.1246    5-B1
  19   1.0000      -9.816645      -267.1245    5-B2
  20   1.0000      -9.816644      -267.1245    7-A1
  21   1.0000      -7.583051      -206.3453    5-A2
  22   1.0000      -7.583050      -206.3453    6-B1
  23   1.0000      -7.583046      -206.3452    6-B2
  24   1.0000      -7.583035      -206.3449    8-A1
  25   1.0000      -5.506265      -149.8331    6-A2
  26   1.0000      -5.506265      -149.8331    7-B1
  27   1.0000      -5.506265      -149.8331    7-B2
  28   1.0000      -5.506265      -149.8331    9-A1
  29   1.0000      -5.500950      -149.6885    7-A2
  30   1.0000      -5.500950      -149.6885    8-B1
  31   1.0000      -5.500950      -149.6885    8-B2
  32   1.0000      -5.500950      -149.6885   10-A1
  33   1.0000      -5.499115      -149.6385    8-A2
  34   1.0000      -5.499115      -149.6385    9-B1
  35   1.0000      -5.499115      -149.6385    9-B2
  36   1.0000      -5.499114      -149.6385   11-A1
  37   1.0000      -4.024263      -109.5058   12-A1
  38   1.0000      -2.545712       -69.2723   10-B1
  39   1.0000      -2.544174       -69.2305   10-B2
  40   1.0000      -2.516720       -68.4834   13-A1
  41   1.0000      -0.589038       -16.0286   14-A1
  42   1.0000      -0.588922       -16.0254   11-B2
  43   1.0000      -0.504456       -13.7269   15-A1
  44   1.0000      -0.503365       -13.6973   12-B2
  45   1.0000      -0.489526       -13.3207   11-B1
  46   1.0000      -0.489277       -13.3139    9-A2
  47   1.0000      -0.409428       -11.1411   12-B1
  48   1.0000      -0.406831       -11.0704   10-A2
  49   1.0000      -0.387852       -10.5540   16-A1
  50   1.0000      -0.381255       -10.3745   13-B2
  51   1.0000      -0.321987        -8.7617   17-A1
  52   1.0000      -0.319305        -8.6887   14-B2
  53   1.0000      -0.299893        -8.1605   13-B1
  54   1.0000      -0.296415        -8.0659   11-A2
  55   1.0000      -0.232916        -6.3380   18-A1
  56   1.0000      -0.227696        -6.1959   15-B2
  57   1.0000      -0.189745        -5.1632   19-A1
  58   1.0000      -0.188892        -5.1400   16-B2
  59   1.0000      -0.177488        -4.8297   14-B1
  60   1.0000      -0.174519        -4.7489   12-A2
  61   1.0000      -0.146432        -3.9846   15-B1
  62   1.0000      -0.143495        -3.9047   13-A2
  63   1.0000      -0.131174        -3.5694   20-A1
  64   1.0000      -0.116694        -3.1754   21-A1
  65   1.0000      -0.116580        -3.1723   17-B2
  66   1.0000      -0.113700        -3.0939   18-B2
  67   1.0000      -0.086622        -2.3571   22-A1
  68   1.0000      -0.069578        -1.8933   16-B1
  69   1.0000      -0.065404        -1.7797   14-A2
  70   1.0000      -0.062067        -1.6889   19-B2
  71   1.0000      -0.038816        -1.0562   20-B2
  72   1.0000      -0.037327        -1.0157   23-A1
  73   1.0000      -0.031277        -0.8511   15-A2
  74   1.0000      -0.029179        -0.7940   24-A1
  75   1.0000      -0.026090        -0.7100   17-B1
  76   1.0000      -0.018987        -0.5167   16-A2
  77   1.0000      -0.002785        -0.0758   18-B1
  78   1.0000      -0.000657        -0.0179   25-A1
  79   1.0000       0.001326         0.0361   21-B2
  80   1.0000       0.018433         0.5016   26-A1
  81   1.0000       0.018983         0.5166   22-B2
  82   1.0000       0.034770         0.9462   19-B1
  83   1.0000       0.050297         1.3686   17-A2
  84   1.0000       0.052387         1.4255   20-B1
  85   1.0000       0.062512         1.7011   27-A1
  86   1.0000       0.087577         2.3831   23-B2
  87   1.0000       0.105006         2.8574   18-A2
  88   0.0000       0.181377         4.9355   28-A1
  89   0.0000       0.181487         4.9385   24-B2
  90   0.0000       0.196808         5.3554   19-A2
  91   0.0000       0.196973         5.3599   21-B1
  92   0.0000       0.200627         5.4593   29-A1

                 SPIN DOWN ORBITALS
  NO   OCC          E(Eh)            E(eV)    Irrep
   0   1.0000    -318.181255     -8658.1521    1-A1
   1   1.0000     -88.013327     -2394.9644    1-B2
   2   1.0000     -88.013315     -2394.9640    1-A2
   3   1.0000     -88.013311     -2394.9639    1-B1
   4   1.0000     -88.013277     -2394.9630    2-A1
   5   1.0000     -38.010754     -1034.3252    3-A1
   6   1.0000     -33.514607      -911.9788    2-B1
   7   1.0000     -33.513793      -911.9567    2-B2
   8   1.0000     -33.510816      -911.8757    4-A1
   9   1.0000      -9.832910      -267.5671    3-B2
  10   1.0000      -9.832904      -267.5669    5-A1
  11   1.0000      -9.832578      -267.5580    2-A2
  12   1.0000      -9.832575      -267.5580    3-B1
  13   1.0000      -9.824006      -267.3248    4-B2
  14   1.0000      -9.824006      -267.3248    6-A1
  15   1.0000      -9.823576      -267.3131    3-A2
  16   1.0000      -9.823576      -267.3131    4-B1
  17   1.0000      -9.816591      -267.1230    4-A2
  18   1.0000      -9.816591      -267.1230    5-B1
  19   1.0000      -9.816587      -267.1229    5-B2
  20   1.0000      -9.816586      -267.1229    7-A1
  21   1.0000      -7.582318      -206.3254    5-A2
  22   1.0000      -7.582318      -206.3254    6-B1
  23   1.0000      -7.582315      -206.3253    6-B2
  24   1.0000      -7.582302      -206.3249    8-A1
  25   1.0000      -5.505338      -149.8078    6-A2
  26   1.0000      -5.505337      -149.8078    7-B1
  27   1.0000      -5.505337      -149.8078    7-B2
  28   1.0000      -5.505337      -149.8078    9-A1
  29   1.0000      -5.498708      -149.6274    7-A2
  30   1.0000      -5.498708      -149.6274    8-B1
  31   1.0000      -5.498708      -149.6274    8-B2
  32   1.0000      -5.498707      -149.6274   10-A1
  33   1.0000      -5.498299      -149.6163    8-A2
  34   1.0000      -5.498299      -149.6163    9-B1
  35   1.0000      -5.498298      -149.6163    9-B2
  36   1.0000      -5.498298      -149.6163   11-A1
  37   1.0000      -3.990473      -108.5863   12-A1
  38   1.0000      -2.504998       -68.1645   13-A1
  39   1.0000      -2.503582       -68.1259   10-B1
  40   1.0000      -2.502020       -68.0834   10-B2
  41   1.0000      -0.588675       -16.0187   14-A1
  42   1.0000      -0.588569       -16.0158   11-B2
  43   1.0000      -0.503141       -13.6912   15-A1
  44   1.0000      -0.502122       -13.6634   12-B2
  45   1.0000      -0.488486       -13.2924   11-B1
  46   1.0000      -0.488261       -13.2863    9-A2
  47   1.0000      -0.405463       -11.0332   12-B1
  48   1.0000      -0.402771       -10.9600   10-A2
  49   1.0000      -0.384654       -10.4670   16-A1
  50   1.0000      -0.378123       -10.2893   13-B2
  51   1.0000      -0.320774        -8.7287   17-A1
  52   1.0000      -0.317775        -8.6471   14-B2
  53   1.0000      -0.298102        -8.1118   13-B1
  54   1.0000      -0.294195        -8.0055   11-A2
  55   1.0000      -0.232343        -6.3224   18-A1
  56   1.0000      -0.226995        -6.1769   15-B2
  57   1.0000      -0.188763        -5.1365   19-A1
  58   1.0000      -0.187994        -5.1156   16-B2
  59   1.0000      -0.176964        -4.8154   14-B1
  60   1.0000      -0.173650        -4.7253   12-A2
  61   1.0000      -0.145751        -3.9661   15-B1
  62   1.0000      -0.141981        -3.8635   13-A2
  63   1.0000      -0.129917        -3.5352   20-A1
  64   1.0000      -0.116523        -3.1708   21-A1
  65   1.0000      -0.116387        -3.1671   17-B2
  66   1.0000      -0.112808        -3.0697   18-B2
  67   1.0000      -0.085204        -2.3185   22-A1
  68   1.0000      -0.068099        -1.8531   16-B1
  69   1.0000      -0.060364        -1.6426   19-B2
  70   1.0000      -0.050766        -1.3814   14-A2
  71   1.0000      -0.036820        -1.0019   20-B2
  72   1.0000      -0.036430        -0.9913   23-A1
  73   1.0000      -0.022924        -0.6238   17-B1
  74   1.0000      -0.022304        -0.6069   24-A1
  75   1.0000      -0.018233        -0.4961   15-A2
  76   1.0000      -0.002466        -0.0671   16-A2
  77   1.0000       0.006859         0.1866   18-B1
  78   1.0000       0.010208         0.2778   25-A1
  79   1.0000       0.013609         0.3703   21-B2
  80   1.0000       0.025793         0.7019   22-B2
  81   1.0000       0.034195         0.9305   26-A1
  82   1.0000       0.043080         1.1723   19-B1
  83   1.0000       0.053133         1.4458   17-A2
  84   1.0000       0.057990         1.5780   20-B1
  85   1.0000       0.064358         1.7513   27-A1
  86   1.0000       0.091739         2.4963   23-B2
  87   0.0000       0.138098         3.7578   18-A2
  88   0.0000       0.182536         4.9671   28-A1
  89   0.0000       0.182626         4.9695   24-B2
  90   0.0000       0.198746         5.4081   19-A2
  91   0.0000       0.198947         5.4136   21-B1

MULLIKEN ATOMIC CHARGES AND SPIN POPULATIONS
--------------------------------------------
   0 Cu:    0.141301    0.375994
   1 S :   -0.424272    0.162846
   2 C :    0.023289   -0.007483
   3 S :   -0.424272    0.162846
   4 C :    0.023289   -0.007483
   5 S :   -0.424272    0.162846
   6 C :    0.023289   -0.007483
   7 S :   -0.424272    0.162846
   8 C :    0.023289   -0.007483
   9 C :   -0.092715   -0.001626
  10 C :   -0.092715   -0.001626
  11 C :   -0.137331   -0.000864
  12 H :    0.065272    0.002031
  13 C :   -0.137331   -0.000864
  14 H :    0.065272    0.002031
  15 H :    0.030432    0.001097
  16 H :    0.030432    0.001097
  17 C :   -0.092715   -0.001626
  18 C :   -0.092715   -0.001626
  19 C :   -0.137331   -0.000864
  20 H :    0.065272    0.002031
  21 C :   -0.137331   -0.000864
  22 H :    0.065272    0.002031
  23 H :    0.030432    0.001097
  24 H :    0.030432    0.001097
Sum of atomic charges         :   -2.0000000

LOEWDIN ATOMIC CHARGES AND SPIN POPULATIONS
-------------------------------------------
   0 Cu:   -0.894506    0.442611
   1 S :    0.008549    0.124012
   2 C :   -0.037729    0.005139
   3 S :    0.008549    0.124012
   4 C :   -0.037729    0.005139
   5 S :    0.008549    0.124012
   6 C :   -0.037729    0.005139
   7 S :    0.008549    0.124012
   8 C :   -0.037729    0.005139
   9 C :    0.306952    0.003857
  10 C :    0.306952    0.003857
  11 C :    0.311168   -0.000121
  12 H :   -0.447748    0.006253
  13 C :    0.311168   -0.000121
  14 H :   -0.447748    0.006253
  15 H :   -0.417565    0.000208
  16 H :   -0.417565    0.000208
  17 C :    0.306952    0.003857
  18 C :    0.306952    0.003857
  19 C :    0.311168   -0.000121
  20 H :   -0.447748    0.006253
  21 C :    0.311168   -0.000121
  22 H :   -0.447748    0.006253
  23 H :   -0.417565    0.000208
  24 H :   -0.417565    0.000208

  Mayer bond orders larger than 0.100000
B(  0-Cu,  1-S ) :   0.7012 B(  0-Cu,  3-S ) :   0.7012 B(  0-Cu,  5-S ) :   0.7012
B(  0-Cu,  7-S ) :   0.7012 B(  1-S ,  2-C ) :   1.1845 B(  2-C ,  6-C ) :   1.2442
B(  2-C , 17-C ) :   1.3183 B(  3-S ,  4-C ) :   1.1845 B(  4-C ,  8-C ) :   1.2442
B(  4-C , 10-C ) :   1.3183 B(  5-S ,  6-C ) :   1.1845 B(  6-C , 18-C ) :   1.3183
B(  7-S ,  8-C ) :   1.1845 B(  8-C ,  9-C ) :   1.3183 B(  9-C , 13-C ) :   1.3622
B(  9-C , 14-H ) :   0.9696 B( 10-C , 11-C ) :   1.3622 B( 10-C , 12-H ) :   0.9696
B( 11-C , 13-C ) :   1.3393 B( 11-C , 15-H ) :   0.9888 B( 13-C , 16-H ) :   0.9888
B( 17-C , 19-C ) :   1.3622 B( 17-C , 20-H ) :   0.9696 B( 18-C , 21-C ) :   1.3622
B( 18-C , 22-H ) :   0.9696 B( 19-C , 21-C ) :   1.3393 B( 19-C , 23-H ) :   0.9888
B( 21-C , 24-H ) :   0.9888

FINAL SINGLE POINT ENERGY     -3686.928706034898

DIPOLE MOMENT
-------------
                                X             Y             Z
Electronic contribution:     -0.00000       0.00000       1.28284
Nuclear contribution   :      0.00000       0.00000      -1.32779
                        -----------------------------------------
Total Dipole Moment    :     -0.00000       0.00000      -0.04496
                        -----------------------------------------
Magnitude (a.u.)       :      0.04496
Magnitude (Debye)      :      0.11427

Rotational constants in cm-1:     0.033292     0.004801     0.004200
Rotational constants in MHz :   998.055525   143.936703   125.919615

                             ****ORCA TERMINATED NORMALLY****
TOTAL RUN TIME: 0 days 5 hours 7 minutes 59 seconds 96 msec
