                         Program Version 5.0.4 -  RELEASE  -
|  1> ! RIJCOSX nofrozencore ReducedPop printbasis
|  2> ! M06L ano-rcc-dzp autoaux
|  3>
|  4> %maxcore 5000
|  5> %basis
|  6> PCDTrimBas overlap
|  7> PCDTrimAuxJ Coulomb
|  8> PCDTrimAuxJK Coulomb
|  9> PCDTrimAuxC Coulomb
| 10> PCDThresh -1
| 11> end
| 12>
| 13> %basis
| 14> newgto Cu "ano-rcc-tzp" end
| 15> newgto S "ano-rcc-tzp" end
| 16> end
| 17>
| 18> %pal
| 19> nprocs 12
| 20> end
| 21>
| 22> % sym SymThresh 1e-2 end
| 23> * xyz -2 2
| 24> Cu 0.0017716264938619582 0.001735023767963515 -0.00023561216192733187
| 25> S -1.5666786815368678 -0.35277432854889684 1.6568933007000708
| 26> C -1.1776165424347624 1.0493197813087443 2.8569611520521527
| 27> S -0.8368602041655612 -1.8287486314876125 -1.1259351955779517
| 28> C 0.29328510974527566 -1.8635312489953153 -2.6757861203451334
| 29> S 0.773863258690025 1.8316979894330607 1.2135663574409667
| 30> C -0.11512820268560539 1.945767102630042 2.5390081353296354
| 31> S 1.5449426768487753 0.2739053604365469 -1.7245969237869656
| 32> C 1.304800735261818 -0.8556436176953769 -2.7891364199189654
| 33> C 2.023963169632436 -1.019034288205191 -3.9485543992040384
| 34> C 0.034892632460459046 -2.9140761114628315 -3.619128613565238
| 35> C 0.7314372141639286 -3.134900102988699 -4.818794506955195
| 36> H -0.8044434963032399 -3.539577542493264 -3.2666067377236834
| 37> C 1.6822416309467108 -2.0746087480066517 -4.786932012880068
| 38> H 2.860294768347197 -0.3841718248560007 -4.285592887008338
| 39> H 0.64191883111113 -3.879069752198537 -5.611742962382481
| 40> H 2.367093950684127 -2.0281898964271368 -5.643370672700092
| 41> C -1.9840705152045348 1.130864461456293 4.032453294317887
| 42> C 0.049891979316999235 2.9132627136471387 3.5050591664431487
| 43> C -1.8578974052497412 2.0924750603427733 5.04309747777046
| 44> H -2.735824566625358 0.32975992985251595 4.052886508119717
| 45> C -0.7863651328079675 2.9084466285410953 4.614421566131213
| 46> H 0.8076808041671699 3.7049042706178397 3.4649763285545783
| 47> H -2.4180569252815487 2.2351360435360874 5.965048493996405
| 48> H -0.5117965754869039 3.7414197482461335 5.269450648806545
| 49> *
| 50>
| 51> % eprnmr
| 52> gtensor true
| 53> Nuclei = all H {aiso,adip,aorb,fgrad,rho}
| 54> Nuclei = all Cu {aiso,adip,aorb,fgrad,rho}
| 55> end
| 56>
| 57>                          ****END OF INPUT****

CARTESIAN COORDINATES (ANGSTROEM)
---------------------------------
  Cu     0.002367   -0.000777    0.000000
  S     -0.898509    2.125302    0.000000
  C      0.653271    3.197392    0.000000
  S     -2.137930   -0.861185    0.000000
  C     -1.782156   -2.746364    0.000000
  S      2.119120    0.967499    0.000000
  C      1.926904    2.555947    0.000000
  S      0.811272   -2.185851    0.000000
  C     -0.413514   -3.169057    0.000000
  C     -0.329897   -4.540607    0.000000
  C     -2.933399   -3.603653    0.000000
  C     -2.915658   -5.008225    0.000000
  H     -3.855977   -2.996315    0.000000
  C     -1.515049   -5.268139    0.000000
  H      0.601103   -5.131652    0.000000
  H     -3.698810   -5.767990    0.000000
  H     -1.231231   -6.328380    0.000000
  C      0.456731    4.611666    0.000000
  C      2.961905    3.464411    0.000000
  C      1.472346    5.576313    0.000000
  H     -0.613045    4.862463    0.000000
  C      2.667765    4.822172    0.000000
  H      4.024204    3.192257    0.000000
  H      1.422778    6.663358    0.000000
  H      3.604688    5.388273    0.000000

 Total Charge           Charge          ....   -2
 Multiplicity           Mult            ....    2
 Number of Electrons    NEL             ....  175
 Basis Dimension        Dim             ....  475

ORBITAL ENERGIES
----------------
                 SPIN UP ORBITALS
  NO   OCC          E(Eh)            E(eV)    Irrep
   0   1.0000    -318.181897     -8658.1696    1-A'
   1   1.0000     -88.014778     -2395.0039    2-A'
   2   1.0000     -88.014616     -2394.9995    3-A'
   3   1.0000     -88.013935     -2394.9809    4-A'
   4   1.0000     -88.013662     -2394.9735    5-A'
   5   1.0000     -38.026928     -1034.7653    6-A'
   6   1.0000     -33.529984      -912.3972    7-A'
   7   1.0000     -33.529130      -912.3740    8-A'
   8   1.0000     -33.515720      -912.0091    1-A"
   9   1.0000      -9.835957      -267.6500    9-A'
  10   1.0000      -9.835050      -267.6253   10-A'
  11   1.0000      -9.834793      -267.6183   11-A'
  12   1.0000      -9.832099      -267.5450   12-A'
  13   1.0000      -9.828413      -267.4447   13-A'
  14   1.0000      -9.827972      -267.4327   14-A'
  15   1.0000      -9.827045      -267.4075   15-A'
  16   1.0000      -9.825008      -267.3520   16-A'
  17   1.0000      -9.824138      -267.3284   17-A'
  18   1.0000      -9.823987      -267.3243   18-A'
  19   1.0000      -9.817663      -267.1522   19-A'
  20   1.0000      -9.816414      -267.1182   20-A'
  21   1.0000      -7.588251      -206.4868   21-A'
  22   1.0000      -7.587285      -206.4605   22-A'
  23   1.0000      -7.580787      -206.2837   23-A'
  24   1.0000      -7.580234      -206.2686   24-A'
  25   1.0000      -5.510274      -149.9422   25-A'
  26   1.0000      -5.509512      -149.9214   26-A'
  27   1.0000      -5.505352      -149.8083   27-A'
  28   1.0000      -5.504817      -149.7937    2-A"
  29   1.0000      -5.504754      -149.7920   28-A'
  30   1.0000      -5.504530      -149.7859   29-A'
  31   1.0000      -5.504322      -149.7802   30-A'
  32   1.0000      -5.503785      -149.7656    3-A"
  33   1.0000      -5.499183      -149.6404   31-A'
  34   1.0000      -5.498673      -149.6265   32-A'
  35   1.0000      -5.496406      -149.5648    4-A"
  36   1.0000      -5.495784      -149.5479    5-A"
  37   1.0000      -4.024567      -109.5140   33-A'
  38   1.0000      -2.545818       -69.2752   34-A'
  39   1.0000      -2.544275       -69.2332   35-A'
  40   1.0000      -2.517487       -68.5043    6-A"
  41   1.0000      -0.595227       -16.1969   36-A'
  42   1.0000      -0.594056       -16.1651   37-A'
  43   1.0000      -0.525080       -14.2882   38-A'
  44   1.0000      -0.520987       -14.1768   39-A'
  45   1.0000      -0.476601       -12.9690   40-A'
  46   1.0000      -0.473094       -12.8735   41-A'
  47   1.0000      -0.424384       -11.5481   42-A'
  48   1.0000      -0.420954       -11.4547   43-A'
  49   1.0000      -0.376048       -10.2328   44-A'
  50   1.0000      -0.366652        -9.9771   45-A'
  51   1.0000      -0.319515        -8.6944   46-A'
  52   1.0000      -0.317152        -8.6301   47-A'
  53   1.0000      -0.301807        -8.2126   48-A'
  54   1.0000      -0.298300        -8.1171   49-A'
  55   1.0000      -0.237000        -6.4491   50-A'
  56   1.0000      -0.232480        -6.3261   51-A'
  57   1.0000      -0.189513        -5.1569   52-A'
  58   1.0000      -0.187033        -5.0894   53-A'
  59   1.0000      -0.175174        -4.7667   54-A'
  60   1.0000      -0.170274        -4.6334   55-A'
  61   1.0000      -0.165283        -4.4976   56-A'
  62   1.0000      -0.157467        -4.2849   57-A'
  63   1.0000      -0.121453        -3.3049    7-A"
  64   1.0000      -0.120536        -3.2800    8-A"
  65   1.0000      -0.104035        -2.8309   58-A'
  66   1.0000      -0.090432        -2.4608   59-A'
  67   1.0000      -0.084567        -2.3012   60-A'
  68   1.0000      -0.080260        -2.1840   61-A'
  69   1.0000      -0.059842        -1.6284   62-A'
  70   1.0000      -0.050700        -1.3796    9-A"
  71   1.0000      -0.048080        -1.3083   10-A"
  72   1.0000      -0.046789        -1.2732   63-A'
  73   1.0000      -0.028544        -0.7767   64-A'
  74   1.0000      -0.028068        -0.7638   65-A'
  75   1.0000      -0.017083        -0.4649   11-A"
  76   1.0000      -0.013013        -0.3541   12-A"
  77   1.0000      -0.001831        -0.0498   13-A"
  78   1.0000      -0.000379        -0.0103   66-A'
  79   1.0000       0.004218         0.1148   14-A"
  80   1.0000       0.017949         0.4884   67-A'
  81   1.0000       0.019044         0.5182   68-A'
  82   1.0000       0.034907         0.9499   69-A'
  83   1.0000       0.047985         1.3057   15-A"
  84   1.0000       0.050113         1.3637   16-A"
  85   1.0000       0.063709         1.7336   17-A"
  86   1.0000       0.088419         2.4060   18-A"
  87   1.0000       0.105349         2.8667   70-A'
  88   0.0000       0.179632         4.8880   71-A'
  89   0.0000       0.180089         4.9005   72-A'
  90   0.0000       0.197159         5.3650   19-A"
  91   0.0000       0.197727         5.3804   73-A'
  92   0.0000       0.198184         5.3929   74-A'

                 SPIN DOWN ORBITALS
  NO   OCC          E(Eh)            E(eV)    Irrep
   0   1.0000    -318.181724     -8658.1649    1-A'
   1   1.0000     -88.013546     -2394.9703    2-A'
   2   1.0000     -88.013384     -2394.9659    3-A'
   3   1.0000     -88.013013     -2394.9558    4-A'
   4   1.0000     -88.012737     -2394.9483    5-A'
   5   1.0000     -38.011278     -1034.3395    6-A'
   6   1.0000     -33.515034      -911.9904    7-A'
   7   1.0000     -33.514212      -911.9681    8-A'
   8   1.0000     -33.511442      -911.8927    1-A"
   9   1.0000      -9.836062      -267.6529    9-A'
  10   1.0000      -9.835162      -267.6284   10-A'
  11   1.0000      -9.834773      -267.6178   11-A'
  12   1.0000      -9.832076      -267.5444   12-A'
  13   1.0000      -9.828527      -267.4478   13-A'
  14   1.0000      -9.828088      -267.4359   14-A'
  15   1.0000      -9.827015      -267.4067   15-A'
  16   1.0000      -9.824981      -267.3513   16-A'
  17   1.0000      -9.824101      -267.3274   17-A'
  18   1.0000      -9.823964      -267.3236   18-A'
  19   1.0000      -9.817530      -267.1486   19-A'
  20   1.0000      -9.816302      -267.1151   20-A'
  21   1.0000      -7.587614      -206.4695   21-A'
  22   1.0000      -7.586650      -206.4432   22-A'
  23   1.0000      -7.579945      -206.2608   23-A'
  24   1.0000      -7.579391      -206.2457   24-A'
  25   1.0000      -5.509429      -149.9192   25-A'
  26   1.0000      -5.508676      -149.8987   26-A'
  27   1.0000      -5.504101      -149.7742    2-A"
  28   1.0000      -5.503705      -149.7634   27-A'
  29   1.0000      -5.503460      -149.7567   28-A'
  30   1.0000      -5.503272      -149.7516   29-A'
  31   1.0000      -5.503073      -149.7462    3-A"
  32   1.0000      -5.502631      -149.7342   30-A'
  33   1.0000      -5.496565      -149.5691   31-A'
  34   1.0000      -5.496049      -149.5551   32-A'
  35   1.0000      -5.495480      -149.5396    4-A"
  36   1.0000      -5.494860      -149.5228    5-A"
  37   1.0000      -3.991421      -108.6121   33-A'
  38   1.0000      -2.505918       -68.1895    6-A"
  39   1.0000      -2.504485       -68.1505   34-A'
  40   1.0000      -2.502912       -68.1077   35-A'
  41   1.0000      -0.594662       -16.1816   36-A'
  42   1.0000      -0.593575       -16.1520   37-A'
  43   1.0000      -0.523773       -14.2526   38-A'
  44   1.0000      -0.519723       -14.1424   39-A'
  45   1.0000      -0.475655       -12.9432   40-A'
  46   1.0000      -0.472206       -12.8494   41-A'
  47   1.0000      -0.421676       -11.4744   42-A'
  48   1.0000      -0.418066       -11.3762   43-A'
  49   1.0000      -0.371400       -10.1063   44-A'
  50   1.0000      -0.361995        -9.8504   45-A'
  51   1.0000      -0.318492        -8.6666   46-A'
  52   1.0000      -0.315969        -8.5979   47-A'
  53   1.0000      -0.299949        -8.1620   48-A'
  54   1.0000      -0.295926        -8.0525   49-A'
  55   1.0000      -0.236401        -6.4328   50-A'
  56   1.0000      -0.231624        -6.3028   51-A'
  57   1.0000      -0.188431        -5.1275   52-A'
  58   1.0000      -0.186029        -5.0621   53-A'
  59   1.0000      -0.174455        -4.7472   54-A'
  60   1.0000      -0.169487        -4.6120   55-A'
  61   1.0000      -0.164695        -4.4816   56-A'
  62   1.0000      -0.156006        -4.2451   57-A'
  63   1.0000      -0.121165        -3.2971    7-A"
  64   1.0000      -0.120284        -3.2731    8-A"
  65   1.0000      -0.102510        -2.7894   58-A'
  66   1.0000      -0.089398        -2.4327   59-A'
  67   1.0000      -0.081657        -2.2220   60-A'
  68   1.0000      -0.076093        -2.0706   61-A'
  69   1.0000      -0.057501        -1.5647   62-A'
  70   1.0000      -0.049614        -1.3501    9-A"
  71   1.0000      -0.046874        -1.2755   10-A"
  72   1.0000      -0.033096        -0.9006   63-A'
  73   1.0000      -0.021709        -0.5907   64-A'
  74   1.0000      -0.012992        -0.3535   11-A"
  75   1.0000      -0.009413        -0.2561   12-A"
  76   1.0000      -0.003003        -0.0817   65-A'
  77   1.0000       0.006227         0.1694   13-A"
  78   1.0000       0.010308         0.2805   66-A'
  79   1.0000       0.014423         0.3925   14-A"
  80   1.0000       0.025714         0.6997   67-A'
  81   1.0000       0.033223         0.9040   68-A'
  82   1.0000       0.043034         1.1710   69-A'
  83   1.0000       0.050646         1.3781   15-A"
  84   1.0000       0.055028         1.4974   16-A"
  85   1.0000       0.066169         1.8005   17-A"
  86   1.0000       0.092714         2.5229   18-A"
  87   0.0000       0.137760         3.7486   70-A'
  88   0.0000       0.181046         4.9265   71-A'
  89   0.0000       0.181471         4.9381   72-A'
  90   0.0000       0.197399         5.3715   19-A"
  91   0.0000       0.199075         5.4171   73-A'

MULLIKEN ATOMIC CHARGES AND SPIN POPULATIONS
--------------------------------------------
   0 Cu:    0.137934    0.369518
   1 S :   -0.445934    0.190291
   2 C :   -0.025749   -0.007943
   3 S :   -0.453799    0.191115
   4 C :   -0.033311   -0.007547
   5 S :   -0.376703    0.137614
   6 C :    0.075460   -0.008412
   7 S :   -0.354450    0.136961
   8 C :    0.080002   -0.009151
   9 C :   -0.098143    0.002200
  10 C :   -0.052244   -0.002438
  11 C :   -0.254401   -0.001303
  12 H :    0.075860    0.003104
  13 C :   -0.043261   -0.000105
  14 H :    0.021192    0.000611
  15 H :   -0.008534    0.000861
  16 H :    0.051024    0.001315
  17 C :   -0.056711   -0.002346
  18 C :   -0.098884    0.001259
  19 C :   -0.243207   -0.001031
  20 H :    0.078649    0.002786
  21 C :   -0.051992   -0.000460
  22 H :    0.030128    0.000914
  23 H :   -0.003635    0.000912
  24 H :    0.050709    0.001273
Sum of atomic charges         :   -2.0000000

LOEWDIN ATOMIC CHARGES AND SPIN POPULATIONS
-------------------------------------------
   0 Cu:   -0.887198    0.436520
   1 S :   -0.012227    0.146329
   2 C :    0.043382    0.002089
   3 S :   -0.015599    0.146777
   4 C :    0.058942    0.001368
   5 S :    0.053532    0.102957
   6 C :   -0.142878    0.007839
   7 S :    0.064032    0.102361
   8 C :   -0.165437    0.008769
   9 C :    0.303279    0.005616
  10 C :    0.290495    0.003271
  11 C :    0.326562   -0.000256
  12 H :   -0.478294    0.010258
  13 C :    0.311468    0.000061
  14 H :   -0.398207    0.003341
  15 H :   -0.393241   -0.000017
  16 H :   -0.461312    0.000438
  17 C :    0.295578    0.003477
  18 C :    0.304422    0.005070
  19 C :    0.323685   -0.000112
  20 H :   -0.474680    0.009758
  21 C :    0.310782   -0.000059
  22 H :   -0.408955    0.003723
  23 H :   -0.396825    0.000046
  24 H :   -0.451305    0.000375

  Mayer bond orders larger than 0.100000
B(  0-Cu,  1-S ) :   0.7323 B(  0-Cu,  3-S ) :   0.7385 B(  0-Cu,  5-S ) :   0.6637
B(  0-Cu,  7-S ) :   0.6546 B(  1-S ,  2-C ) :   1.0873 B(  2-C ,  6-C ) :   1.2291
B(  2-C , 17-C ) :   1.3654 B(  3-S ,  4-C ) :   1.0682 B(  4-C ,  8-C ) :   1.2216
B(  4-C , 10-C ) :   1.3732 B(  5-S ,  6-C ) :   1.3224 B(  6-C , 18-C ) :   1.2550
B(  7-S ,  8-C ) :   1.3601 B(  8-C ,  9-C ) :   1.2409 B(  9-C , 13-C ) :   1.3794
B(  9-C , 14-H ) :   0.9973 B( 10-C , 11-C ) :   1.3258 B( 10-C , 12-H ) :   0.9609
B( 11-C , 13-C ) :   1.3118 B( 11-C , 15-H ) :   1.0249 B( 13-C , 16-H ) :   0.9756
B( 17-C , 19-C ) :   1.3339 B( 17-C , 20-H ) :   0.9593 B( 18-C , 21-C ) :   1.3768
B( 18-C , 22-H ) :   0.9923 B( 19-C , 21-C ) :   1.3205 B( 19-C , 23-H ) :   1.0204
B( 21-C , 24-H ) :   0.9752

FINAL SINGLE POINT ENERGY     -3686.822212862900

DIPOLE MOMENT
-------------
                                X             Y             Z
Electronic contribution:      0.20243      -0.03541      -0.00000
Nuclear contribution   :      0.22882      -0.10798       0.00000
                        -----------------------------------------
Total Dipole Moment    :      0.43124      -0.14339      -0.00000
                        -----------------------------------------
Magnitude (a.u.)       :      0.45446
Magnitude (Debye)      :      1.15514

Rotational constants in cm-1:     0.033338     0.004802     0.004197
Rotational constants in MHz :   999.447549   143.962885   125.837012

                             ****ORCA TERMINATED NORMALLY****
TOTAL RUN TIME: 0 days 6 hours 22 minutes 50 seconds 664 msec
