                         Program Version 5.0.4 -  RELEASE  -
|  1> ! RIJCOSX nofrozencore ReducedPop printbasis
|  2> ! M06L ano-rcc-dzp autoaux
|  3>
|  4> %maxcore 5000
|  5> %basis
|  6> PCDTrimBas overlap
|  7> PCDTrimAuxJ Coulomb
|  8> PCDTrimAuxJK Coulomb
|  9> PCDTrimAuxC Coulomb
| 10> PCDThresh -1
| 11> end
| 12>
| 13> %basis
| 14> newgto Cu "ano-rcc-tzp" end
| 15> newgto S "ano-rcc-tzp" end
| 16> end
| 17>
| 18> %pal
| 19> nprocs 12
| 20> end
| 21>
| 22> % sym SymThresh 1e-2 end
| 23> * xyz -2 2
| 24> Cu -1.1057844856285093e-06 7.913402977079187e-07 -3.886144677785877e-07
| 25> S -1.7968036632446296 1.3045148763505445 -0.6647981901568338
| 26> C -1.3292414057535769 1.932540733233918 -2.220481192131778
| 27> S -1.0575775709476545 -0.5618052854247298 1.9844492998137533
| 28> C 0.07222866208565817 -1.6063667027286797 2.8032383032719324
| 29> S 1.0575817779147294 0.5618006654396108 -1.9844449458310325
| 30> C -0.07224082538621186 1.6065894473021423 -2.8036250188122365
| 31> S 1.7968047503315052 -1.3045096193458883 0.6647877890922649
| 32> C 1.3294068512530548 -1.9328083969381968 2.220806038138548
| 33> C 2.2059742803948272 -2.782436546542262 2.926107477289323
| 34> C -0.22852976357480134 -2.1493259215881007 4.052258942921577
| 35> C 0.6303359060579671 -2.9793880728897606 4.73901422220796
| 36> H -1.3565268223311173 -1.8498247063653275 4.563045454191386
| 37> C 1.8632609115744319 -3.306100617303409 4.17955449224075
| 38> H 2.9965473271479137 -2.9836349256009975 2.55255011626738
| 39> H 0.32971863677622276 -3.405757446688119 5.779584450074577
| 40> H 2.5132172988553294 -3.9123333380211474 4.660087113643223
| 41> C -2.2147898646244784 2.78462101026958 -2.921836430823414
| 42> C 0.21966713184069547 2.151739184761433 -4.048353084552172
| 43> C -1.8656654863512616 3.3087286762881063 -4.182020611279966
| 44> H -2.8952052856339705 2.9576552711398465 -2.600099053004865
| 45> C -0.6309100880222085 2.9776050680799204 -4.73529599226348
| 46> H 1.4576106472551302 1.823142701506206 -4.6091000211248545
| 47> H -2.4828561550998063 3.8835191226730807 -4.636754815776709
| 48> H -0.3183449497993876 3.422877559445152 -5.820720364465039
| 49> *
| 50>
| 51> % eprnmr
| 52> gtensor true
| 53> Nuclei = all H {aiso,adip,aorb,fgrad,rho}
| 54> Nuclei = all Cu {aiso,adip,aorb,fgrad,rho}
| 55> end
| 56>
| 57>                          ****END OF INPUT****

CARTESIAN COORDINATES (ANGSTROEM)
---------------------------------
  Cu    -0.000001   -0.000001    0.000000
  S     -0.986105   -2.097574    0.000000
  C     -2.697764   -1.776007    0.000000
  S      2.124598   -0.926401    0.000000
  C      3.200965    0.444518    0.000000
  S     -2.124592    0.926406    0.000000
  C     -3.201407   -0.444582    0.000000
  S      0.986093    2.097574    0.000000
  C      2.698155    1.776235    0.000000
  C      3.613007    2.848958    0.000000
  C      4.584735    0.269888    0.000000
  C      5.476213    1.320389    0.000000
  H      5.022446   -0.926520    0.000000
  C      4.996465    2.627937    0.000000
  H      3.288509    3.685458    0.000000
  H      6.622659    1.118874    0.000000
  H      5.626495    3.417833    0.000000
  C     -3.609269   -2.858271    0.000000
  C     -4.581418   -0.279301    0.000000
  C     -4.999580   -2.630948    0.000000
  H     -3.329722   -3.578184    0.000000
  C     -5.472052   -1.320549    0.000000
  H     -5.061991    1.033698    0.000000
  H     -5.596056   -3.380820    0.000000
  H     -6.668046   -1.111478    0.000000

 Total Charge           Charge          ....   -2
 Multiplicity           Mult            ....    2
 Number of Electrons    NEL             ....  175
 Basis Dimension        Dim             ....  475

ORBITAL ENERGIES
----------------
                 SPIN UP ORBITALS
  NO   OCC          E(Eh)            E(eV)    Irrep
   0   1.0000    -318.182228     -8658.1786    1-A'
   1   1.0000     -88.015692     -2395.0288    2-A'
   2   1.0000     -88.015394     -2395.0206    3-A'
   3   1.0000     -88.015202     -2395.0154    4-A'
   4   1.0000     -88.015045     -2395.0111    5-A'
   5   1.0000     -38.027451     -1034.7796    6-A'
   6   1.0000     -33.530592      -912.4138    7-A'
   7   1.0000     -33.529748      -912.3908    8-A'
   8   1.0000     -33.515957      -912.0156    1-A"
   9   1.0000      -9.842125      -267.8178    9-A'
  10   1.0000      -9.836718      -267.6707   10-A'
  11   1.0000      -9.835003      -267.6240   11-A'
  12   1.0000      -9.834310      -267.6052   12-A'
  13   1.0000      -9.833766      -267.5904   13-A'
  14   1.0000      -9.833440      -267.5815   14-A'
  15   1.0000      -9.833046      -267.5708   15-A'
  16   1.0000      -9.831443      -267.5272   16-A'
  17   1.0000      -9.817597      -267.1504   17-A'
  18   1.0000      -9.814022      -267.0531   18-A'
  19   1.0000      -9.799985      -266.6712   19-A'
  20   1.0000      -9.792534      -266.4684   20-A'
  21   1.0000      -7.584279      -206.3787   21-A'
  22   1.0000      -7.584168      -206.3757   22-A'
  23   1.0000      -7.583859      -206.3673   23-A'
  24   1.0000      -7.583804      -206.3658   24-A'
  25   1.0000      -5.507607      -149.8696   25-A'
  26   1.0000      -5.507329      -149.8620   26-A'
  27   1.0000      -5.507127      -149.8565   27-A'
  28   1.0000      -5.506974      -149.8524   28-A'
  29   1.0000      -5.502147      -149.7210   29-A'
  30   1.0000      -5.502074      -149.7190   30-A'
  31   1.0000      -5.501746      -149.7101   31-A'
  32   1.0000      -5.501722      -149.7095   32-A'
  33   1.0000      -5.500305      -149.6709    2-A"
  34   1.0000      -5.500268      -149.6699    3-A"
  35   1.0000      -5.499903      -149.6600    4-A"
  36   1.0000      -5.499891      -149.6596    5-A"
  37   1.0000      -4.025053      -109.5273   33-A'
  38   1.0000      -2.546497       -69.2937   34-A'
  39   1.0000      -2.544957       -69.2518   35-A'
  40   1.0000      -2.517518       -68.5052    6-A"
  41   1.0000      -0.593495       -16.1498   36-A'
  42   1.0000      -0.591209       -16.0876   37-A'
  43   1.0000      -0.507652       -13.8139   38-A'
  44   1.0000      -0.505386       -13.7523   39-A'
  45   1.0000      -0.499956       -13.6045   40-A'
  46   1.0000      -0.493904       -13.4398   41-A'
  47   1.0000      -0.413363       -11.2482   42-A'
  48   1.0000      -0.409821       -11.1518   43-A'
  49   1.0000      -0.393154       -10.6983   44-A'
  50   1.0000      -0.385895       -10.5007   45-A'
  51   1.0000      -0.338710        -9.2168   46-A'
  52   1.0000      -0.328435        -8.9372   47-A'
  53   1.0000      -0.299865        -8.1597   48-A'
  54   1.0000      -0.296509        -8.0684   49-A'
  55   1.0000      -0.236579        -6.4376   50-A'
  56   1.0000      -0.230836        -6.2814   51-A'
  57   1.0000      -0.192280        -5.2322   52-A'
  58   1.0000      -0.190728        -5.1900   53-A'
  59   1.0000      -0.184222        -5.0129   54-A'
  60   1.0000      -0.178986        -4.8705   55-A'
  61   1.0000      -0.145255        -3.9526   56-A'
  62   1.0000      -0.142012        -3.8643   57-A'
  63   1.0000      -0.129452        -3.5226   58-A'
  64   1.0000      -0.118728        -3.2307    7-A"
  65   1.0000      -0.117925        -3.2089    8-A"
  66   1.0000      -0.107919        -2.9366   59-A'
  67   1.0000      -0.080582        -2.1927   60-A'
  68   1.0000      -0.071242        -1.9386   61-A'
  69   1.0000      -0.066317        -1.8046   62-A'
  70   1.0000      -0.059715        -1.6249   63-A'
  71   1.0000      -0.040090        -1.0909    9-A"
  72   1.0000      -0.038484        -1.0472   10-A"
  73   1.0000      -0.032102        -0.8736   64-A'
  74   1.0000      -0.030069        -0.8182   65-A'
  75   1.0000      -0.027247        -0.7414   11-A"
  76   1.0000      -0.020381        -0.5546   12-A"
  77   1.0000      -0.003816        -0.1038   13-A"
  78   1.0000      -0.001538        -0.0419   66-A'
  79   1.0000       0.000456         0.0124   14-A"
  80   1.0000       0.017563         0.4779   67-A'
  81   1.0000       0.018130         0.4933   68-A'
  82   1.0000       0.034095         0.9278   69-A'
  83   1.0000       0.049164         1.3378   15-A"
  84   1.0000       0.051368         1.3978   16-A"
  85   1.0000       0.061599         1.6762   17-A"
  86   1.0000       0.086655         2.3580   18-A"
  87   1.0000       0.104324         2.8388   70-A'
  88   0.0000       0.177892         4.8407   71-A'
  89   0.0000       0.180208         4.9037   72-A'
  90   0.0000       0.194813         5.3011   73-A'
  91   0.0000       0.196081         5.3356   74-A'
  92   0.0000       0.199740         5.4352   19-A"

                 SPIN DOWN ORBITALS
  NO   OCC          E(Eh)            E(eV)    Irrep
   0   1.0000    -318.182053     -8658.1738    1-A'
   1   1.0000     -88.014618     -2394.9995    2-A'
   2   1.0000     -88.014328     -2394.9916    3-A'
   3   1.0000     -88.014131     -2394.9863    4-A'
   4   1.0000     -88.013975     -2394.9820    5-A'
   5   1.0000     -38.011574     -1034.3475    6-A'
   6   1.0000     -33.515424      -912.0011    7-A'
   7   1.0000     -33.514612      -911.9790    8-A'
   8   1.0000     -33.511630      -911.8978    1-A"
   9   1.0000      -9.842069      -267.8163    9-A'
  10   1.0000      -9.836695      -267.6701   10-A'
  11   1.0000      -9.835117      -267.6271   11-A'
  12   1.0000      -9.834423      -267.6083   12-A'
  13   1.0000      -9.833878      -267.5934   13-A'
  14   1.0000      -9.833504      -267.5833   14-A'
  15   1.0000      -9.833040      -267.5706   15-A'
  16   1.0000      -9.831419      -267.5265   16-A'
  17   1.0000      -9.817577      -267.1499   17-A'
  18   1.0000      -9.814004      -267.0526   18-A'
  19   1.0000      -9.799930      -266.6696   19-A'
  20   1.0000      -9.792478      -266.4669   20-A'
  21   1.0000      -7.583542      -206.3587   21-A'
  22   1.0000      -7.583435      -206.3557   22-A'
  23   1.0000      -7.583124      -206.3473   23-A'
  24   1.0000      -7.583068      -206.3458   24-A'
  25   1.0000      -5.506680      -149.8444   25-A'
  26   1.0000      -5.506398      -149.8367   26-A'
  27   1.0000      -5.506200      -149.8313   27-A'
  28   1.0000      -5.506039      -149.8269   28-A'
  29   1.0000      -5.499877      -149.6593   29-A'
  30   1.0000      -5.499835      -149.6581   30-A'
  31   1.0000      -5.499490      -149.6487    2-A"
  32   1.0000      -5.499488      -149.6487   31-A'
  33   1.0000      -5.499474      -149.6483   32-A'
  34   1.0000      -5.499452      -149.6477    3-A"
  35   1.0000      -5.499088      -149.6378    4-A"
  36   1.0000      -5.499073      -149.6374    5-A"
  37   1.0000      -3.991312      -108.6091   33-A'
  38   1.0000      -2.505800       -68.1863    6-A"
  39   1.0000      -2.504430       -68.1490   34-A'
  40   1.0000      -2.502863       -68.1064   35-A'
  41   1.0000      -0.593149       -16.1404   36-A'
  42   1.0000      -0.590854       -16.0779   37-A'
  43   1.0000      -0.506437       -13.7808   38-A'
  44   1.0000      -0.504138       -13.7183   39-A'
  45   1.0000      -0.499068       -13.5803   40-A'
  46   1.0000      -0.492941       -13.4136   41-A'
  47   1.0000      -0.409237       -11.1359   42-A'
  48   1.0000      -0.405697       -11.0396   43-A'
  49   1.0000      -0.390383       -10.6228   44-A'
  50   1.0000      -0.383032       -10.4228   45-A'
  51   1.0000      -0.336963        -9.1692   46-A'
  52   1.0000      -0.326847        -8.8939   47-A'
  53   1.0000      -0.298072        -8.1110   48-A'
  54   1.0000      -0.294306        -8.0085   49-A'
  55   1.0000      -0.235958        -6.4208   50-A'
  56   1.0000      -0.230084        -6.2609   51-A'
  57   1.0000      -0.191318        -5.2060   52-A'
  58   1.0000      -0.189811        -5.1650   53-A'
  59   1.0000      -0.183499        -4.9933   54-A'
  60   1.0000      -0.178131        -4.8472   55-A'
  61   1.0000      -0.144552        -3.9335   56-A'
  62   1.0000      -0.140583        -3.8255   57-A'
  63   1.0000      -0.128036        -3.4840   58-A'
  64   1.0000      -0.118556        -3.2261    7-A"
  65   1.0000      -0.117744        -3.2040    8-A"
  66   1.0000      -0.106838        -2.9072   59-A'
  67   1.0000      -0.079246        -2.1564   60-A'
  68   1.0000      -0.069744        -1.8978   61-A'
  69   1.0000      -0.058244        -1.5849   62-A'
  70   1.0000      -0.051796        -1.4094   63-A'
  71   1.0000      -0.038220        -1.0400    9-A"
  72   1.0000      -0.037482        -1.0199   10-A"
  73   1.0000      -0.024186        -0.6581   11-A"
  74   1.0000      -0.023230        -0.6321   64-A'
  75   1.0000      -0.019589        -0.5331   12-A"
  76   1.0000      -0.003261        -0.0887   65-A'
  77   1.0000       0.005897         0.1605   13-A"
  78   1.0000       0.009288         0.2527   66-A'
  79   1.0000       0.012762         0.3473   14-A"
  80   1.0000       0.024930         0.6784   67-A'
  81   1.0000       0.033332         0.9070   68-A'
  82   1.0000       0.042390         1.1535   69-A'
  83   1.0000       0.052017         1.4154   15-A"
  84   1.0000       0.056985         1.5506   16-A"
  85   1.0000       0.063448         1.7265   17-A"
  86   1.0000       0.090830         2.4716   18-A"
  87   0.0000       0.137342         3.7373   70-A'
  88   0.0000       0.179059         4.8724   71-A'
  89   0.0000       0.181372         4.9354   72-A'
  90   0.0000       0.195851         5.3294   73-A'
  91   0.0000       0.197690         5.3794   74-A'

MULLIKEN ATOMIC CHARGES AND SPIN POPULATIONS
--------------------------------------------
   0 Cu:    0.138198    0.375865
   1 S :   -0.438031    0.162296
   2 C :   -0.018672   -0.007507
   3 S :   -0.411369    0.162786
   4 C :    0.036136   -0.007344
   5 S :   -0.403007    0.162920
   6 C :    0.038155   -0.007182
   7 S :   -0.433774    0.163113
   8 C :   -0.004889   -0.007515
   9 C :   -0.293218   -0.002434
  10 C :   -0.022862   -0.000704
  11 C :   -0.094845   -0.001032
  12 H :   -0.057330    0.001381
  13 C :   -0.218537   -0.000729
  14 H :    0.346402    0.002678
  15 H :   -0.036396    0.001397
  16 H :    0.122639    0.000725
  17 C :   -0.552860   -0.002291
  18 C :   -0.011523   -0.000475
  19 C :   -0.283981   -0.000684
  20 H :    0.643028    0.002476
  21 C :   -0.085638   -0.001093
  22 H :   -0.093717    0.001348
  23 H :    0.204214    0.000459
  24 H :   -0.068123    0.001546
Sum of atomic charges         :   -2.0000000

LOEWDIN ATOMIC CHARGES AND SPIN POPULATIONS
-------------------------------------------
   0 Cu:   -0.893595    0.442239
   1 S :    0.027181    0.124114
   2 C :    0.025931    0.005277
   3 S :   -0.001385    0.123927
   4 C :   -0.063090    0.005190
   5 S :   -0.007578    0.124152
   6 C :   -0.074249    0.005283
   7 S :    0.020925    0.124483
   8 C :   -0.003036    0.005229
   9 C :    0.446213    0.004015
  10 C :    0.216800    0.003747
  11 C :    0.261489   -0.000114
  12 H :   -0.299291    0.006423
  13 C :    0.380402   -0.000151
  14 H :   -0.666128    0.005907
  15 H :   -0.353784    0.000292
  16 H :   -0.491016    0.000134
  17 C :    0.569200    0.004066
  18 C :    0.179396    0.003603
  19 C :    0.437882   -0.000192
  20 H :   -0.851926    0.005537
  21 C :    0.239363   -0.000099
  22 H :   -0.234573    0.006486
  23 H :   -0.547696    0.000077
  24 H :   -0.317433    0.000377

  Mayer bond orders larger than 0.100000
B(  0-Cu,  1-S ) :   0.7003 B(  0-Cu,  3-S ) :   0.7039 B(  0-Cu,  5-S ) :   0.7043
B(  0-Cu,  7-S ) :   0.7017 B(  1-S ,  2-C ) :   1.1946 B(  2-C ,  6-C ) :   1.2391
B(  2-C , 17-C ) :   1.3948 B(  3-S ,  4-C ) :   1.1819 B(  4-C ,  8-C ) :   1.2422
B(  4-C , 10-C ) :   1.3176 B(  5-S ,  6-C ) :   1.1818 B(  6-C , 18-C ) :   1.3243
B(  7-S ,  8-C ) :   1.1909 B(  8-C ,  9-C ) :   1.3548 B(  9-C , 13-C ) :   1.4122
B(  9-C , 14-H ) :   0.7462 B( 10-C , 11-C ) :   1.3567 B( 10-C , 12-H ) :   0.9958
B( 11-C , 13-C ) :   1.3439 B( 11-C , 15-H ) :   1.0103 B( 13-C , 16-H ) :   0.9383
B( 17-C , 19-C ) :   1.4670 B( 17-C , 20-H ) :   0.3628 B( 18-C , 21-C ) :   1.3635
B( 18-C , 22-H ) :   0.9775 B( 19-C , 21-C ) :   1.3532 B( 19-C , 23-H ) :   0.8778
B( 21-C , 24-H ) :   1.0136

FINAL SINGLE POINT ENERGY     -3686.694686153498

DIPOLE MOMENT
-------------
                                X             Y             Z
Electronic contribution:      0.17024      -0.34538      -0.00000
Nuclear contribution   :     -0.08979       0.24286       0.00000
                        -----------------------------------------
Total Dipole Moment    :      0.08045      -0.10252      -0.00000
                        -----------------------------------------
Magnitude (a.u.)       :      0.13032
Magnitude (Debye)      :      0.33125

Rotational constants in cm-1:     0.033406     0.004804     0.004200
Rotational constants in MHz :  1001.474756   144.016760   125.910273

                             ****ORCA TERMINATED NORMALLY****
TOTAL RUN TIME: 0 days 6 hours 13 minutes 9 seconds 890 msec
