                         Program Version 5.0.4 -  RELEASE  -
|  1> ! RIJCOSX nofrozencore ReducedPop printbasis
|  2> ! M06L ano-rcc-dzp autoaux
|  3>
|  4> %maxcore 5000
|  5> %basis
|  6> PCDTrimBas overlap
|  7> PCDTrimAuxJ Coulomb
|  8> PCDTrimAuxJK Coulomb
|  9> PCDTrimAuxC Coulomb
| 10> PCDThresh -1
| 11> end
| 12>
| 13> %basis
| 14> newgto Cu "ano-rcc-tzp" end
| 15> newgto S "ano-rcc-tzp" end
| 16> end
| 17>
| 18> %pal
| 19> nprocs 12
| 20> end
| 21>
| 22> % sym SymThresh 1e-2 end
| 23> * xyz -2 2
| 24> Cu 4.376181329111365e-06 -8.689238407645638e-06 5.945264743460377e-06
| 25> S -0.6410096292227737 -0.3558316659192528 -2.1988001158999904
| 26> C -0.2803599581035458 -2.034907769088083 -2.4940473416938453
| 27> S -0.6437459228838214 2.2242348990753373 -0.10317451373174588
| 28> C -0.28549149127716 2.8579214372751327 1.4802611207907144
| 29> S 0.6437454898754411 -2.2242009436532446 0.10320091149328486
| 30> C 0.28563715736043904 -2.8578914712865133 -1.4798029544107734
| 31> S 0.6410096769692197 0.35578664552889666 2.1987635486718693
| 32> C 0.2805041037219431 2.0344997369173576 2.494143839301846
| 33> C 0.5482500451930498 2.601503549024418 3.753710542309992
| 34> C -0.5476255189723861 4.195169860735136 1.790121905618375
| 35> C -0.28658835729288223 4.77071643538152 3.0366784120905534
| 36> H -1.0329361377814426 4.892329546588335 0.9135316716337385
| 37> C 0.2672360174011356 3.931656979114222 4.00156941454275
| 38> H 0.9256258375171571 2.0451885592576096 4.423760354998951
| 39> H -0.4401521348398495 5.496745369344148 3.171430432185228
| 40> H 0.5542296679870793 4.4600026986785135 5.286926079625032
| 41> C -0.5425562941418891 -2.6097590516964417 -3.7434884437681264
| 42> C 0.5532533309488509 -4.203389920871007 -1.7800672462148828
| 43> C -0.2745385483631372 -3.9453470016721486 -4.034476051774659
| 44> H -0.9982951362029332 -1.938684048944462 -4.553295695059005
| 45> C 0.2792772531051243 -4.735895011102727 -3.0300545901762828
| 46> H 0.961166006067468 -4.78879043618832 -1.042807643014085
| 47> H -0.46432496639408033 -4.294912276295691 -4.884613841970079
| 48> H 0.5301834121022979 -5.921911742530338 -3.2500336894472115
| 49> *
| 50>
| 51> % eprnmr
| 52> gtensor true
| 53> Nuclei = all H {aiso,adip,aorb,fgrad,rho}
| 54> Nuclei = all Cu {aiso,adip,aorb,fgrad,rho}
| 55> end
| 56>
| 57>                          ****END OF INPUT****

CARTESIAN COORDINATES (ANGSTROEM)
---------------------------------
  Cu    -0.000009    0.000007    0.000000
  S     -0.270999   -2.301910    0.000000
  C     -1.997247   -2.539829    0.000000
  S      2.308663   -0.205786    0.000000
  C      2.894809    1.435436    0.000000
  S     -2.308630    0.205812    0.000000
  C     -2.894798   -1.434954    0.000000
  S      0.270954    2.301874    0.000000
  C      1.996820    2.539948    0.000000
  C      2.528265    3.842736    0.000000
  C      4.266308    1.703670    0.000000
  C      4.807181    2.992373    0.000000
  H      5.027408    0.749366    0.000000
  C      3.895167    4.045932    0.000000
  H      1.922235    4.573210    0.000000
  H      5.553292    3.102718    0.000000
  H      4.385422    5.377588    0.000000
  C     -2.537271   -3.831602    0.000000
  C     -4.275270   -1.692714    0.000000
  C     -3.907888   -4.080017    0.000000
  H     -1.806157   -4.714381    0.000000
  C     -4.771404   -2.986911    0.000000
  H     -4.914414   -0.890135    0.000000
  H     -4.232265   -4.960772    0.000000
  H     -5.990233   -3.167012    0.000000

 Total Charge           Charge          ....   -2
 Multiplicity           Mult            ....    2
 Number of Electrons    NEL             ....  175
 Basis Dimension        Dim             ....  475

ORBITAL ENERGIES
----------------
                 SPIN UP ORBITALS
  NO   OCC          E(Eh)            E(eV)    Irrep
   0   1.0000    -318.183247     -8658.2063    1-A'
   1   1.0000     -88.017686     -2395.0830    2-A'
   2   1.0000     -88.016526     -2395.0514    3-A'
   3   1.0000     -88.015604     -2395.0263    4-A'
   4   1.0000     -88.015560     -2395.0251    5-A'
   5   1.0000     -38.028494     -1034.8079    6-A'
   6   1.0000     -33.531642      -912.4424    7-A'
   7   1.0000     -33.530795      -912.4193    8-A'
   8   1.0000     -33.516979      -912.0434    1-A"
   9   1.0000      -9.854096      -268.1436    9-A'
  10   1.0000      -9.838352      -267.7152   10-A'
  11   1.0000      -9.837148      -267.6824   11-A'
  12   1.0000      -9.834747      -267.6171   12-A'
  13   1.0000      -9.833756      -267.5901   13-A'
  14   1.0000      -9.833150      -267.5736   14-A'
  15   1.0000      -9.832507      -267.5561   15-A'
  16   1.0000      -9.823746      -267.3177   16-A'
  17   1.0000      -9.812207      -267.0037   17-A'
  18   1.0000      -9.810844      -266.9666   18-A'
  19   1.0000      -9.806818      -266.8571   19-A'
  20   1.0000      -9.800224      -266.6777   20-A'
  21   1.0000      -7.586355      -206.4352   21-A'
  22   1.0000      -7.585222      -206.4044   22-A'
  23   1.0000      -7.584258      -206.3782   23-A'
  24   1.0000      -7.584236      -206.3776   24-A'
  25   1.0000      -5.509583      -149.9234   25-A'
  26   1.0000      -5.508423      -149.8918   26-A'
  27   1.0000      -5.507517      -149.8671   27-A'
  28   1.0000      -5.507458      -149.8656   28-A'
  29   1.0000      -5.504184      -149.7765   29-A'
  30   1.0000      -5.503112      -149.7473   30-A'
  31   1.0000      -5.502469      -149.7298    2-A"
  32   1.0000      -5.502197      -149.7224   31-A'
  33   1.0000      -5.502191      -149.7222   32-A'
  34   1.0000      -5.501306      -149.6981    3-A"
  35   1.0000      -5.500265      -149.6698    4-A"
  36   1.0000      -5.500257      -149.6696    5-A"
  37   1.0000      -4.026077      -109.5551   33-A'
  38   1.0000      -2.547539       -69.3220   34-A'
  39   1.0000      -2.545991       -69.2799   35-A'
  40   1.0000      -2.518504       -68.5320    6-A"
  41   1.0000      -0.594984       -16.1903   36-A'
  42   1.0000      -0.591418       -16.0933   37-A'
  43   1.0000      -0.516631       -14.0582   38-A'
  44   1.0000      -0.507434       -13.8080   39-A'
  45   1.0000      -0.494193       -13.4477   40-A'
  46   1.0000      -0.491657       -13.3787   41-A'
  47   1.0000      -0.420678       -11.4472   42-A'
  48   1.0000      -0.411816       -11.2061   43-A'
  49   1.0000      -0.389696       -10.6042   44-A'
  50   1.0000      -0.383523       -10.4362   45-A'
  51   1.0000      -0.326380        -8.8812   46-A'
  52   1.0000      -0.322625        -8.7791   47-A'
  53   1.0000      -0.317182        -8.6310   48-A'
  54   1.0000      -0.303444        -8.2571   49-A'
  55   1.0000      -0.239752        -6.5240   50-A'
  56   1.0000      -0.232449        -6.3252   51-A'
  57   1.0000      -0.193189        -5.2569   52-A'
  58   1.0000      -0.191124        -5.2008   53-A'
  59   1.0000      -0.174887        -4.7589   54-A'
  60   1.0000      -0.169471        -4.6115   55-A'
  61   1.0000      -0.158398        -4.3102   56-A'
  62   1.0000      -0.148793        -4.0489   57-A'
  63   1.0000      -0.125385        -3.4119   58-A'
  64   1.0000      -0.119815        -3.2603    7-A"
  65   1.0000      -0.118438        -3.2229    8-A"
  66   1.0000      -0.107251        -2.9184   59-A'
  67   1.0000      -0.087133        -2.3710   60-A'
  68   1.0000      -0.069739        -1.8977   61-A'
  69   1.0000      -0.067205        -1.8287   62-A'
  70   1.0000      -0.062412        -1.6983   63-A'
  71   1.0000      -0.041051        -1.1170    9-A"
  72   1.0000      -0.039219        -1.0672   10-A"
  73   1.0000      -0.033149        -0.9020   64-A'
  74   1.0000      -0.031081        -0.8458   65-A'
  75   1.0000      -0.028297        -0.7700   11-A"
  76   1.0000      -0.021372        -0.5816   12-A"
  77   1.0000      -0.004810        -0.1309   13-A"
  78   1.0000      -0.002517        -0.0685   66-A'
  79   1.0000      -0.000498        -0.0135   14-A"
  80   1.0000       0.016586         0.4513   67-A'
  81   1.0000       0.017124         0.4660   68-A'
  82   1.0000       0.032957         0.8968   69-A'
  83   1.0000       0.048227         1.3123   15-A"
  84   1.0000       0.050464         1.3732   16-A"
  85   1.0000       0.060766         1.6535   17-A"
  86   1.0000       0.085845         2.3360   18-A"
  87   1.0000       0.103098         2.8054   70-A'
  88   0.0000       0.173016         4.7080   71-A'
  89   0.0000       0.179182         4.8758   72-A'
  90   0.0000       0.196993         5.3605   73-A'
  91   0.0000       0.198443         5.3999   74-A'
  92   0.0000       0.198506         5.4016   19-A"

                 SPIN DOWN ORBITALS
  NO   OCC          E(Eh)            E(eV)    Irrep
   0   1.0000    -318.183073     -8658.2016    1-A'
   1   1.0000     -88.016643     -2395.0546    2-A'
   2   1.0000     -88.015470     -2395.0227    3-A'
   3   1.0000     -88.014527     -2394.9970    4-A'
   4   1.0000     -88.014475     -2394.9956    5-A'
   5   1.0000     -38.012628     -1034.3762    6-A'
   6   1.0000     -33.516485      -912.0299    7-A'
   7   1.0000     -33.515669      -912.0077    8-A'
   8   1.0000     -33.512657      -911.9258    1-A"
   9   1.0000      -9.854072      -268.1429    9-A'
  10   1.0000      -9.838331      -267.7146   10-A'
  11   1.0000      -9.837267      -267.6856   11-A'
  12   1.0000      -9.834864      -267.6202   12-A'
  13   1.0000      -9.833863      -267.5930   13-A'
  14   1.0000      -9.833264      -267.5767   14-A'
  15   1.0000      -9.832450      -267.5546   15-A'
  16   1.0000      -9.823684      -267.3160   16-A'
  17   1.0000      -9.812151      -267.0022   17-A'
  18   1.0000      -9.810819      -266.9660   18-A'
  19   1.0000      -9.806767      -266.8557   19-A'
  20   1.0000      -9.800200      -266.6770   20-A'
  21   1.0000      -7.585639      -206.4157   21-A'
  22   1.0000      -7.584499      -206.3847   22-A'
  23   1.0000      -7.583522      -206.3581   23-A'
  24   1.0000      -7.583492      -206.3573   24-A'
  25   1.0000      -5.508676      -149.8987   25-A'
  26   1.0000      -5.507505      -149.8668   26-A'
  27   1.0000      -5.506584      -149.8418   27-A'
  28   1.0000      -5.506513      -149.8398   28-A'
  29   1.0000      -5.501996      -149.7169   29-A'
  30   1.0000      -5.501671      -149.7081    2-A"
  31   1.0000      -5.500896      -149.6870   30-A'
  32   1.0000      -5.500501      -149.6763    3-A"
  33   1.0000      -5.499936      -149.6609   31-A'
  34   1.0000      -5.499909      -149.6601   32-A'
  35   1.0000      -5.499441      -149.6474    4-A"
  36   1.0000      -5.499440      -149.6474    5-A"
  37   1.0000      -3.992354      -108.6375   33-A'
  38   1.0000      -2.506793       -68.2133    6-A"
  39   1.0000      -2.505496       -68.1780   34-A'
  40   1.0000      -2.503922       -68.1352   35-A'
  41   1.0000      -0.594667       -16.1817   36-A'
  42   1.0000      -0.591065       -16.0837   37-A'
  43   1.0000      -0.515649       -14.0315   38-A'
  44   1.0000      -0.506214       -13.7748   39-A'
  45   1.0000      -0.493090       -13.4177   40-A'
  46   1.0000      -0.490600       -13.3499   41-A'
  47   1.0000      -0.417152       -11.3513   42-A'
  48   1.0000      -0.407921       -11.1001   43-A'
  49   1.0000      -0.386169       -10.5082   44-A'
  50   1.0000      -0.380079       -10.3425   45-A'
  51   1.0000      -0.325491        -8.8571   46-A'
  52   1.0000      -0.321308        -8.7432   47-A'
  53   1.0000      -0.315006        -8.5717   48-A'
  54   1.0000      -0.301402        -8.2016   49-A'
  55   1.0000      -0.238649        -6.4940   50-A'
  56   1.0000      -0.231451        -6.2981   51-A'
  57   1.0000      -0.192268        -5.2319   52-A'
  58   1.0000      -0.190206        -5.1758   53-A'
  59   1.0000      -0.174287        -4.7426   54-A'
  60   1.0000      -0.169094        -4.6013   55-A'
  61   1.0000      -0.157397        -4.2830   56-A'
  62   1.0000      -0.147487        -4.0133   57-A'
  63   1.0000      -0.124087        -3.3766   58-A'
  64   1.0000      -0.119632        -3.2554    7-A"
  65   1.0000      -0.118254        -3.2179    8-A"
  66   1.0000      -0.105676        -2.8756   59-A'
  67   1.0000      -0.085646        -2.3305   60-A'
  68   1.0000      -0.068282        -1.8580   61-A'
  69   1.0000      -0.061968        -1.6862   62-A'
  70   1.0000      -0.052021        -1.4156   63-A'
  71   1.0000      -0.039275        -1.0687    9-A"
  72   1.0000      -0.038106        -1.0369   10-A"
  73   1.0000      -0.025249        -0.6870   11-A"
  74   1.0000      -0.024229        -0.6593   64-A'
  75   1.0000      -0.020540        -0.5589   12-A"
  76   1.0000      -0.004318        -0.1175   65-A'
  77   1.0000       0.004900         0.1333   13-A"
  78   1.0000       0.008312         0.2262   66-A'
  79   1.0000       0.011791         0.3209   14-A"
  80   1.0000       0.023946         0.6516   67-A'
  81   1.0000       0.032355         0.8804   68-A'
  82   1.0000       0.041291         1.1236   69-A'
  83   1.0000       0.051102         1.3906   15-A"
  84   1.0000       0.056015         1.5243   16-A"
  85   1.0000       0.062651         1.7048   17-A"
  86   1.0000       0.090011         2.4493   18-A"
  87   0.0000       0.136073         3.7027   70-A'
  88   0.0000       0.174699         4.7538   71-A'
  89   0.0000       0.180661         4.9160   72-A'
  90   0.0000       0.198414         5.3991   73-A'
  91   0.0000       0.198535         5.4024   19-A"

MULLIKEN ATOMIC CHARGES AND SPIN POPULATIONS
--------------------------------------------
   0 Cu:    0.139033    0.375697
   1 S :   -0.419604    0.165785
   2 C :    0.028353   -0.007646
   3 S :   -0.415318    0.164624
   4 C :    0.027421   -0.007500
   5 S :   -0.424925    0.161319
   6 C :    0.015763   -0.007532
   7 S :   -0.426007    0.158139
   8 C :    0.007931   -0.007309
   9 C :   -0.191506   -0.002322
  10 C :   -0.093465   -0.000985
  11 C :   -0.598904   -0.000325
  12 H :   -0.042611    0.001347
  13 C :   -0.147027   -0.001402
  14 H :    0.260806    0.002904
  15 H :    0.699957    0.000119
  16 H :   -0.154077    0.003558
  17 C :   -0.087546   -0.001303
  18 C :   -0.120276   -0.001938
  19 C :   -0.252442   -0.000514
  20 H :    0.003867    0.001708
  21 C :   -0.118200   -0.001320
  22 H :    0.140722    0.002413
  23 H :    0.254846    0.000530
  24 H :   -0.086792    0.001952
Sum of atomic charges         :   -2.0000000

LOEWDIN ATOMIC CHARGES AND SPIN POPULATIONS
-------------------------------------------
   0 Cu:   -0.893367    0.441960
   1 S :    0.006241    0.126023
   2 C :   -0.046183    0.005315
   3 S :    0.001399    0.124828
   4 C :   -0.053349    0.005341
   5 S :    0.014883    0.122863
   6 C :   -0.028728    0.005037
   7 S :    0.021673    0.121273
   8 C :   -0.013895    0.004987
   9 C :    0.359433    0.003830
  10 C :    0.316174    0.003788
  11 C :    0.523745   -0.000064
  12 H :   -0.317342    0.006422
  13 C :    0.294709    0.000052
  14 H :   -0.614940    0.005864
  15 H :   -0.880821   -0.000237
  16 H :   -0.193952    0.002031
  17 C :    0.303292    0.003904
  18 C :    0.322090    0.003856
  19 C :    0.380677   -0.000062
  20 H :   -0.383894    0.006409
  21 C :    0.284049   -0.000170
  22 H :   -0.515586    0.006117
  23 H :   -0.593202   -0.000058
  24 H :   -0.293107    0.000690

  Mayer bond orders larger than 0.100000
B(  0-Cu,  1-S ) :   0.7058 B(  0-Cu,  3-S ) :   0.7055 B(  0-Cu,  5-S ) :   0.7013
B(  0-Cu,  7-S ) :   0.6976 B(  1-S ,  2-C ) :   1.1820 B(  2-C ,  6-C ) :   1.2441
B(  2-C , 17-C ) :   1.3190 B(  3-S ,  4-C ) :   1.1806 B(  4-C ,  8-C ) :   1.2430
B(  4-C , 10-C ) :   1.3247 B(  5-S ,  6-C ) :   1.1879 B(  6-C , 18-C ) :   1.3203
B(  7-S ,  8-C ) :   1.1928 B(  8-C ,  9-C ) :   1.3285 B(  9-C , 13-C ) :   1.4022
B(  9-C , 14-H ) :   0.8347 B( 10-C , 11-C ) :   1.4417 B( 10-C , 12-H ) :   1.0017
B( 11-C , 13-C ) :   1.4386 B( 11-C , 15-H ) :   0.2681 B( 13-C , 16-H ) :   0.9783
B( 17-C , 19-C ) :   1.3830 B( 17-C , 20-H ) :   0.9951 B( 18-C , 21-C ) :   1.3714
B( 18-C , 22-H ) :   0.9261 B( 19-C , 21-C ) :   1.3642 B( 19-C , 23-H ) :   0.8357
B( 21-C , 24-H ) :   1.0137

FINAL SINGLE POINT ENERGY     -3686.693316214524

DIPOLE MOMENT
-------------
                                X             Y             Z
Electronic contribution:     -0.03792      -0.26844       0.00000
Nuclear contribution   :     -0.05128       0.06618       0.00000
                        -----------------------------------------
Total Dipole Moment    :     -0.08920      -0.20225       0.00000
                        -----------------------------------------
Magnitude (a.u.)       :      0.22105
Magnitude (Debye)      :      0.56187

Rotational constants in cm-1:     0.033416     0.004804     0.004200
Rotational constants in MHz :  1001.779299   144.011126   125.910779

                             ****ORCA TERMINATED NORMALLY****
TOTAL RUN TIME: 0 days 7 hours 4 minutes 42 seconds 620 msec
