                         Program Version 5.0.4 -  RELEASE  -
|  1> ! RIJCOSX nofrozencore ReducedPop printbasis
|  2> ! M06L ano-rcc-dzp autoaux
|  3>
|  4> %maxcore 5000
|  5> %basis
|  6> PCDTrimBas overlap
|  7> PCDTrimAuxJ Coulomb
|  8> PCDTrimAuxJK Coulomb
|  9> PCDTrimAuxC Coulomb
| 10> PCDThresh -1
| 11> end
| 12>
| 13> %basis
| 14> newgto Cu "ano-rcc-tzp" end
| 15> newgto S "ano-rcc-tzp" end
| 16> end
| 17>
| 18> %pal
| 19> nprocs 12
| 20> end
| 21>
| 22> % sym SymThresh 1e-2 end
| 23> * xyz -2 2
| 24> Cu -2.4902632061000198e-05 -0.00014616123134252054 -9.67561541653689e-05
| 25> S -1.7648665946568736 -0.8947924855107886 -1.2140195121589585
| 26> C -2.996399780786732 0.2260787346598096 -1.020483873520715
| 27> S 1.375003759145964 -1.788878114003023 -0.5365458691486271
| 28> C 2.861386114724717 -1.4331186842535373 0.24868039825044486
| 29> S -1.3648341376941908 1.7889467486610886 0.5405077973169998
| 30> C -2.942436798226939 1.4426648628013239 -0.2742380166049859
| 31> S 1.7558750479279375 0.9000830792212229 1.2137074647066746
| 32> C 3.0710237556914293 -0.259253946894241 1.0294738182715812
| 33> C 4.3056999675518295 -0.03946151900807841 1.6365762417677794
| 34> C 3.952234528025986 -2.325619987665025 0.137077324704507
| 35> C 5.199825057897493 -2.0764788440576525 0.766659383536351
| 36> H 3.7661792924151527 -3.2133866062189824 -0.4640258021573235
| 37> C 5.3425376092795265 -0.9120438011018296 1.5160263025823557
| 38> H 4.479894180360834 0.8495026209288594 2.233820301302934
| 39> H 6.0686093329113255 -2.7336882580386535 0.7097397385669971
| 40> H 6.253266908579192 -0.6233127302360658 2.039335191247404
| 41> C -4.2654771180062685 -3.001727051485053e-05 -1.6446163737811028
| 42> C -4.000518842622792 2.3104773535479506 -0.16472326055253061
| 43> C -5.386618247464961 0.9385296344085959 -1.5172287697174687
| 44> H -4.254598052512656 -0.9456211962754901 -2.204269749447654
| 45> C -5.150514700839787 2.076912057840485 -0.7473889476912537
| 46> H -3.9925618761818775 3.2447305683390675 0.39543180968920283
| 47> H -6.428955931625163 0.9414090242483384 -1.9173958047399662
| 48> H -5.817432517313847 2.9309309668724266 -0.495281803963902
| 49> *
| 50>
| 51> % eprnmr
| 52> gtensor true
| 53> Nuclei = all H {aiso,adip,aorb,fgrad,rho}
| 54> Nuclei = all Cu {aiso,adip,aorb,fgrad,rho}
| 55> end
| 56>
| 57>                          ****END OF INPUT****

CARTESIAN COORDINATES (ANGSTROEM)
---------------------------------
  Cu    -0.000042   -0.000172    0.000000
  S     -1.979776   -1.212327    0.000000
  C     -3.173276   -0.035025    0.000000
  S      1.274649   -1.937491    0.000000
  C      2.899175   -1.377675    0.000000
  S     -1.263789    1.938579    0.000000
  C     -2.984640    1.380705    0.000000
  S      1.970751    1.217569    0.000000
  C      3.249338    0.003965    0.000000
  C      4.590608    0.381197    0.000000
  C      3.967142   -2.304179    0.000000
  C      5.325354   -1.891643    0.000000
  H      3.672962   -3.351810    0.000000
  C      5.603083   -0.527571    0.000000
  H      4.872259    1.429040    0.000000
  H      6.181690   -2.567394    0.000000
  H      6.606076   -0.102541    0.000000
  C     -4.551938   -0.422991    0.000000
  C     -4.020300    2.281837    0.000000
  C     -5.647271    0.553905    0.000000
  H     -4.642186   -1.518129    0.000000
  C     -5.272686    1.897035    0.000000
  H     -3.911172    3.365699    0.000000
  H     -6.759299    0.453887    0.000000
  H     -5.892398    2.820963    0.000000

 Total Charge           Charge          ....   -2
 Multiplicity           Mult            ....    2
 Number of Electrons    NEL             ....  175
 Basis Dimension        Dim             ....  475

ORBITAL ENERGIES
----------------
                 SPIN UP ORBITALS
  NO   OCC          E(Eh)            E(eV)    Irrep
   0   1.0000    -318.182264     -8658.1796    1-A'
   1   1.0000     -88.017279     -2395.0719    2-A'
   2   1.0000     -88.015715     -2395.0294    3-A'
   3   1.0000     -88.014345     -2394.9921    4-A'
   4   1.0000     -88.012869     -2394.9519    5-A'
   5   1.0000     -38.027444     -1034.7794    6-A'
   6   1.0000     -33.530589      -912.4137    7-A'
   7   1.0000     -33.529737      -912.3905    8-A'
   8   1.0000     -33.515955      -912.0155    1-A"
   9   1.0000      -9.837552      -267.6934    9-A'
  10   1.0000      -9.835336      -267.6331   10-A'
  11   1.0000      -9.833648      -267.5872   11-A'
  12   1.0000      -9.832546      -267.5572   12-A'
  13   1.0000      -9.832541      -267.5570   13-A'
  14   1.0000      -9.830464      -267.5005   14-A'
  15   1.0000      -9.828174      -267.4382   15-A'
  16   1.0000      -9.821806      -267.2649   16-A'
  17   1.0000      -9.819846      -267.2116   17-A'
  18   1.0000      -9.815271      -267.0871   18-A'
  19   1.0000      -9.812143      -267.0020   19-A'
  20   1.0000      -9.805318      -266.8163   20-A'
  21   1.0000      -7.587525      -206.4671   21-A'
  22   1.0000      -7.584976      -206.3977   22-A'
  23   1.0000      -7.582580      -206.3325   23-A'
  24   1.0000      -7.580398      -206.2731   24-A'
  25   1.0000      -5.510482      -149.9478   25-A'
  26   1.0000      -5.508076      -149.8824   26-A'
  27   1.0000      -5.505848      -149.8217   27-A'
  28   1.0000      -5.505249      -149.8054   28-A'
  29   1.0000      -5.503751      -149.7647   29-A'
  30   1.0000      -5.503613      -149.7609    2-A"
  31   1.0000      -5.502814      -149.7392   30-A'
  32   1.0000      -5.501055      -149.6913    3-A"
  33   1.0000      -5.500584      -149.6785   31-A'
  34   1.0000      -5.498635      -149.6255    4-A"
  35   1.0000      -5.498488      -149.6215   32-A'
  36   1.0000      -5.496459      -149.5662    5-A"
  37   1.0000      -4.025049      -109.5271   33-A'
  38   1.0000      -2.546499       -69.2937   34-A'
  39   1.0000      -2.544963       -69.2520   35-A'
  40   1.0000      -2.517502       -68.5047    6-A"
  41   1.0000      -0.593229       -16.1426   36-A'
  42   1.0000      -0.589965       -16.0538   37-A'
  43   1.0000      -0.515382       -14.0243   38-A'
  44   1.0000      -0.506708       -13.7882   39-A'
  45   1.0000      -0.488350       -13.2887   40-A'
  46   1.0000      -0.481649       -13.1063   41-A'
  47   1.0000      -0.413896       -11.2627   42-A'
  48   1.0000      -0.409464       -11.1421   43-A'
  49   1.0000      -0.387561       -10.5461   44-A'
  50   1.0000      -0.380960       -10.3665   45-A'
  51   1.0000      -0.324270        -8.8238   46-A'
  52   1.0000      -0.320681        -8.7262   47-A'
  53   1.0000      -0.298196        -8.1143   48-A'
  54   1.0000      -0.293672        -7.9912   49-A'
  55   1.0000      -0.233002        -6.3403   50-A'
  56   1.0000      -0.227775        -6.1981   51-A'
  57   1.0000      -0.193387        -5.2623   52-A'
  58   1.0000      -0.190459        -5.1826   53-A'
  59   1.0000      -0.175543        -4.7768   54-A'
  60   1.0000      -0.167389        -4.5549   55-A'
  61   1.0000      -0.144665        -3.9365   56-A'
  62   1.0000      -0.138682        -3.7737   57-A'
  63   1.0000      -0.130999        -3.5647   58-A'
  64   1.0000      -0.119447        -3.2503    7-A"
  65   1.0000      -0.117408        -3.1948    8-A"
  66   1.0000      -0.112139        -3.0515   59-A'
  67   1.0000      -0.087755        -2.3879   60-A'
  68   1.0000      -0.072198        -1.9646   61-A'
  69   1.0000      -0.067884        -1.8472   62-A'
  70   1.0000      -0.055844        -1.5196   63-A'
  71   1.0000      -0.044736        -1.2173    9-A"
  72   1.0000      -0.039730        -1.0811   10-A"
  73   1.0000      -0.032204        -0.8763   64-A'
  74   1.0000      -0.027585        -0.7506   65-A'
  75   1.0000      -0.024562        -0.6684   11-A"
  76   1.0000      -0.017494        -0.4760   12-A"
  77   1.0000      -0.003232        -0.0879   13-A"
  78   1.0000      -0.001063        -0.0289   66-A'
  79   1.0000       0.000919         0.0250   14-A"
  80   1.0000       0.017625         0.4796   67-A'
  81   1.0000       0.018691         0.5086   68-A'
  82   1.0000       0.034278         0.9328   69-A'
  83   1.0000       0.049416         1.3447   15-A"
  84   1.0000       0.051525         1.4021   16-A"
  85   1.0000       0.062109         1.6901   17-A"
  86   1.0000       0.087134         2.3710   18-A"
  87   1.0000       0.104125         2.8334   70-A'
  88   0.0000       0.180633         4.9153   71-A'
  89   0.0000       0.181214         4.9311   72-A'
  90   0.0000       0.195542         5.3210   19-A"
  91   0.0000       0.196627         5.3505   73-A'
  92   0.0000       0.196773         5.3545   74-A'

                 SPIN DOWN ORBITALS
  NO   OCC          E(Eh)            E(eV)    Irrep
   0   1.0000    -318.182090     -8658.1748    1-A'
   1   1.0000     -88.016261     -2395.0442    2-A'
   2   1.0000     -88.014683     -2395.0013    3-A'
   3   1.0000     -88.013235     -2394.9619    4-A'
   4   1.0000     -88.011757     -2394.9217    5-A'
   5   1.0000     -38.011571     -1034.3474    6-A'
   6   1.0000     -33.515425      -912.0011    7-A'
   7   1.0000     -33.514605      -911.9788    8-A'
   8   1.0000     -33.511630      -911.8978    1-A"
   9   1.0000      -9.837524      -267.6926    9-A'
  10   1.0000      -9.835447      -267.6361   10-A'
  11   1.0000      -9.833757      -267.5901   11-A'
  12   1.0000      -9.832662      -267.5603   12-A'
  13   1.0000      -9.832658      -267.5602   13-A'
  14   1.0000      -9.830372      -267.4980   14-A'
  15   1.0000      -9.828152      -267.4376   15-A'
  16   1.0000      -9.821741      -267.2632   16-A'
  17   1.0000      -9.819822      -267.2109   17-A'
  18   1.0000      -9.815250      -267.0865   18-A'
  19   1.0000      -9.812092      -267.0006   19-A'
  20   1.0000      -9.805284      -266.8153   20-A'
  21   1.0000      -7.586827      -206.4481   21-A'
  22   1.0000      -7.584272      -206.3785   22-A'
  23   1.0000      -7.581825      -206.3119   23-A'
  24   1.0000      -7.579644      -206.2526   24-A'
  25   1.0000      -5.509590      -149.9236   25-A'
  26   1.0000      -5.507179      -149.8580   26-A'
  27   1.0000      -5.504881      -149.7954   27-A'
  28   1.0000      -5.503121      -149.7475   28-A'
  29   1.0000      -5.502837      -149.7398    2-A"
  30   1.0000      -5.502788      -149.7385   29-A'
  31   1.0000      -5.500653      -149.6804   30-A'
  32   1.0000      -5.500270      -149.6700    3-A"
  33   1.0000      -5.498271      -149.6155   31-A'
  34   1.0000      -5.497792      -149.6025    4-A"
  35   1.0000      -5.496169      -149.5584   32-A'
  36   1.0000      -5.495615      -149.5433    5-A"
  37   1.0000      -3.991298      -108.6087   33-A'
  38   1.0000      -2.505777       -68.1857    6-A"
  39   1.0000      -2.504433       -68.1491   34-A'
  40   1.0000      -2.502858       -68.1062   35-A'
  41   1.0000      -0.592891       -16.1334   36-A'
  42   1.0000      -0.589602       -16.0439   37-A'
  43   1.0000      -0.513979       -13.9861   38-A'
  44   1.0000      -0.505414       -13.7530   39-A'
  45   1.0000      -0.487291       -13.2599   40-A'
  46   1.0000      -0.480686       -13.0801   41-A'
  47   1.0000      -0.410246       -11.1634   42-A'
  48   1.0000      -0.405518       -11.0347   43-A'
  49   1.0000      -0.384321       -10.4579   44-A'
  50   1.0000      -0.377818       -10.2810   45-A'
  51   1.0000      -0.322514        -8.7760   46-A'
  52   1.0000      -0.318856        -8.6765   47-A'
  53   1.0000      -0.296437        -8.0665   48-A'
  54   1.0000      -0.291827        -7.9410   49-A'
  55   1.0000      -0.232420        -6.3245   50-A'
  56   1.0000      -0.227068        -6.1788   51-A'
  57   1.0000      -0.192455        -5.2370   52-A'
  58   1.0000      -0.189538        -5.1576   53-A'
  59   1.0000      -0.174875        -4.7586   54-A'
  60   1.0000      -0.166491        -4.5304   55-A'
  61   1.0000      -0.143760        -3.9119   56-A'
  62   1.0000      -0.137316        -3.7366   57-A'
  63   1.0000      -0.129689        -3.5290   58-A'
  64   1.0000      -0.119280        -3.2458    7-A"
  65   1.0000      -0.117223        -3.1898    8-A"
  66   1.0000      -0.111159        -3.0248   59-A'
  67   1.0000      -0.086597        -2.3564   60-A'
  68   1.0000      -0.069200        -1.8830   61-A'
  69   1.0000      -0.063335        -1.7234   62-A'
  70   1.0000      -0.043858        -1.1934   63-A'
  71   1.0000      -0.043279        -1.1777    9-A"
  72   1.0000      -0.038270        -1.0414   10-A"
  73   1.0000      -0.022238        -0.6051   64-A'
  74   1.0000      -0.021509        -0.5853   11-A"
  75   1.0000      -0.016125        -0.4388   12-A"
  76   1.0000      -0.003589        -0.0977   65-A'
  77   1.0000       0.006227         0.1695   13-A"
  78   1.0000       0.009728         0.2647   66-A'
  79   1.0000       0.013002         0.3538   14-A"
  80   1.0000       0.025580         0.6961   67-A'
  81   1.0000       0.033169         0.9026   68-A'
  82   1.0000       0.042661         1.1609   69-A'
  83   1.0000       0.052226         1.4211   15-A"
  84   1.0000       0.057055         1.5525   16-A"
  85   1.0000       0.064018         1.7420   17-A"
  86   1.0000       0.091301         2.4844   18-A"
  87   0.0000       0.137169         3.7326   70-A'
  88   0.0000       0.181767         4.9461   71-A'
  89   0.0000       0.182359         4.9622   72-A'
  90   0.0000       0.195651         5.3239   19-A"
  91   0.0000       0.198445         5.4000   73-A'

MULLIKEN ATOMIC CHARGES AND SPIN POPULATIONS
--------------------------------------------
   0 Cu:    0.143846    0.375337
   1 S :   -0.401473    0.151654
   2 C :    0.071765   -0.006843
   3 S :   -0.420426    0.156410
   4 C :    0.040510   -0.006893
   5 S :   -0.443358    0.172939
   6 C :   -0.023444   -0.008656
   7 S :   -0.427937    0.170077
   8 C :    0.005639   -0.008135
   9 C :   -0.062561   -0.001616
  10 C :   -0.117805   -0.001427
  11 C :   -0.180776   -0.000931
  12 H :    0.071332    0.002144
  13 C :   -0.092690   -0.000838
  14 H :    0.056564    0.001791
  15 H :    0.027638    0.001013
  16 H :    0.029925    0.001265
  17 C :   -0.147567   -0.000473
  18 C :   -0.007149   -0.001328
  19 C :   -0.248723   -0.000681
  20 H :    0.080046    0.002280
  21 C :   -0.017545   -0.001086
  22 H :    0.038335    0.001273
  23 H :    0.011401    0.001071
  24 H :    0.014454    0.001654
Sum of atomic charges         :   -2.0000000

LOEWDIN ATOMIC CHARGES AND SPIN POPULATIONS
-------------------------------------------
   0 Cu:   -0.892090    0.442279
   1 S :    0.037066    0.114773
   2 C :   -0.072262    0.005946
   3 S :    0.018086    0.118286
   4 C :   -0.050663    0.005349
   5 S :   -0.013144    0.132347
   6 C :   -0.001685    0.004096
   7 S :    0.001737    0.130134
   8 C :   -0.026359    0.005125
   9 C :    0.294649    0.003814
  10 C :    0.317407    0.003970
  11 C :    0.319460   -0.000178
  12 H :   -0.457494    0.006569
  13 C :    0.299305   -0.000079
  14 H :   -0.436011    0.005874
  15 H :   -0.421281    0.000186
  16 H :   -0.410662    0.000246
  17 C :    0.329310    0.004624
  18 C :    0.268348    0.003398
  19 C :    0.322603   -0.000011
  20 H :   -0.473948    0.007483
  21 C :    0.270846   -0.000137
  22 H :   -0.417774    0.005309
  23 H :   -0.413209    0.000278
  24 H :   -0.392234    0.000321

  Mayer bond orders larger than 0.100000
B(  0-Cu,  1-S ) :   0.6805 B(  0-Cu,  3-S ) :   0.6927 B(  0-Cu,  5-S ) :   0.7183
B(  0-Cu,  7-S ) :   0.7095 B(  1-S ,  2-C ) :   1.2425 B(  2-C ,  6-C ) :   1.2392
B(  2-C , 17-C ) :   1.3116 B(  3-S ,  4-C ) :   1.2036 B(  4-C ,  8-C ) :   1.2430
B(  4-C , 10-C ) :   1.3176 B(  5-S ,  6-C ) :   1.1370 B(  6-C , 18-C ) :   1.3200
B(  7-S ,  8-C ) :   1.1689 B(  8-C ,  9-C ) :   1.3181 B(  9-C , 13-C ) :   1.3554
B(  9-C , 14-H ) :   0.9731 B( 10-C , 11-C ) :   1.3660 B( 10-C , 12-H ) :   0.9666
B( 11-C , 13-C ) :   1.3387 B( 11-C , 15-H ) :   0.9932 B( 13-C , 16-H ) :   0.9852
B( 17-C , 19-C ) :   1.3669 B( 17-C , 20-H ) :   0.9598 B( 18-C , 21-C ) :   1.3393
B( 18-C , 22-H ) :   0.9780 B( 19-C , 21-C ) :   1.3329 B( 19-C , 23-H ) :   1.0035
B( 21-C , 24-H ) :   0.9838

FINAL SINGLE POINT ENERGY     -3686.888694395570

DIPOLE MOMENT
-------------
                                X             Y             Z
Electronic contribution:     -0.05013      -0.54519       0.00000
Nuclear contribution   :      0.12019       0.49767       0.00000
                        -----------------------------------------
Total Dipole Moment    :      0.07006      -0.04752       0.00000
                        -----------------------------------------
Magnitude (a.u.)       :      0.08465
Magnitude (Debye)      :      0.21517

Rotational constants in cm-1:     0.033417     0.004804     0.004200
Rotational constants in MHz :  1001.805638   144.007392   125.908340

                             ****ORCA TERMINATED NORMALLY****
TOTAL RUN TIME: 0 days 5 hours 30 minutes 19 seconds 740 msec
