                         Program Version 5.0.4 -  RELEASE  -
|  1> ! RIJCOSX nofrozencore ReducedPop printbasis
|  2> ! M06L ano-rcc-dzp autoaux
|  3>
|  4> %maxcore 5000
|  5> %basis
|  6> PCDTrimBas overlap
|  7> PCDTrimAuxJ Coulomb
|  8> PCDTrimAuxJK Coulomb
|  9> PCDTrimAuxC Coulomb
| 10> PCDThresh -1
| 11> end
| 12>
| 13> %basis
| 14> newgto Cu "ano-rcc-tzp" end
| 15> newgto S "ano-rcc-tzp" end
| 16> end
| 17>
| 18> %pal
| 19> nprocs 12
| 20> end
| 21>
| 22> % sym SymThresh 1e-2 end
| 23> * xyz -2 2
| 24> Cu 9.588271219100195e-05 -0.0001351172800209549 -6.872282111959854e-05
| 25> S 0.7887171056423771 -1.3158988053412721 1.623983762347864
| 26> C 0.21632937028945975 -0.6151532998822451 3.1678322990707937
| 27> S 1.030606953120698 -1.3637786517833392 -1.6868683686678958
| 28> C 0.580153644430428 -0.5645990986578282 -3.1245287238412227
| 29> S -1.031184691976691 1.364527367551823 1.6879831132629937
| 30> C -0.5800500471961653 0.5644333139339812 3.124666459233886
| 31> S -0.7893342878075366 1.3168612033158746 -1.6245337499054413
| 32> C -0.2162225129407079 0.6149465880072283 -3.167307828187193
| 33> C -0.448496447479628 1.0805073746032956 -4.481191608176451
| 34> C 1.083403684371998 -1.2009381708605749 -4.265208098988752
| 35> C 0.8377667923313973 -0.7201065711630608 -5.5313899713953045
| 36> H 1.6791870539320437 -2.0964123599000373 -4.0936213114910105
| 37> C 0.06228634885902501 0.43313333022401573 -5.622773906978198
| 38> H -1.0484853010944266 1.980292516630741 -4.632465790371065
| 39> H 1.2298233740562545 -1.2163470053986312 -6.414671127678462
| 40> H -0.16210704362367737 0.855531053707806 -6.599014425923102
| 41> C 0.4491177301629003 -1.081441834198639 4.481377600359448
| 42> C -1.0831303025549766 1.2005866163687005 4.264651350552413
| 43> C -0.061508592235038136 -0.4342461732641906 5.622396721345148
| 44> H 1.0491515897363157 -1.981222829435333 4.631895963615549
| 45> C -0.8371449495410641 0.7192762622625382 5.530451812201018
| 46> H -1.6789480143722542 2.0960577945618266 4.093639655694316
| 47> H 0.1625560963094347 -0.8561846289455419 6.598915022230853
| 48> H -1.2290633024379154 1.2152973464033412 6.413896884093663
| 49> *
| 50>
| 51> % eprnmr
| 52> gtensor true
| 53> Nuclei = all H {aiso,adip,aorb,fgrad,rho}
| 54> Nuclei = all Cu {aiso,adip,aorb,fgrad,rho}
| 55> end
| 56>
| 57>                          ****END OF INPUT****

CARTESIAN COORDINATES (ANGSTROEM)
---------------------------------
  Cu     0.000096   -0.000135   -0.000069
  S      0.788717   -1.315899    1.623984
  C      0.216329   -0.615153    3.167832
  S      1.030607   -1.363779   -1.686868
  C      0.580154   -0.564599   -3.124529
  S     -1.031185    1.364527    1.687983
  C     -0.580050    0.564433    3.124666
  S     -0.789334    1.316861   -1.624534
  C     -0.216223    0.614947   -3.167308
  C     -0.448496    1.080507   -4.481192
  C      1.083404   -1.200938   -4.265208
  C      0.837767   -0.720107   -5.531390
  H      1.679187   -2.096412   -4.093621
  C      0.062286    0.433133   -5.622774
  H     -1.048485    1.980293   -4.632466
  H      1.229823   -1.216347   -6.414671
  H     -0.162107    0.855531   -6.599014
  C      0.449118   -1.081442    4.481378
  C     -1.083130    1.200587    4.264651
  C     -0.061509   -0.434246    5.622397
  H      1.049152   -1.981223    4.631896
  C     -0.837145    0.719276    5.530452
  H     -1.678948    2.096058    4.093640
  H      0.162556   -0.856185    6.598915
  H     -1.229063    1.215297    6.413897

 Total Charge           Charge          ....   -2
 Multiplicity           Mult            ....    2
 Number of Electrons    NEL             ....  175
 Basis Dimension        Dim             ....  475

ORBITAL ENERGIES
----------------
                 SPIN UP ORBITALS
  NO   OCC          E(Eh)            E(eV)
   0   1.0000    -318.181174     -8658.1499
   1   1.0000     -88.019775     -2395.1399
   2   1.0000     -88.019745     -2395.1390
   3   1.0000     -88.009118     -2394.8499
   4   1.0000     -88.009080     -2394.8488
   5   1.0000     -38.026414     -1034.7513
   6   1.0000     -33.529710      -912.3898
   7   1.0000     -33.528482      -912.3564
   8   1.0000     -33.515002      -911.9896
   9   1.0000      -9.837657      -267.6963
  10   1.0000      -9.837654      -267.6962
  11   1.0000      -9.828596      -267.4497
  12   1.0000      -9.828506      -267.4472
  13   1.0000      -9.824050      -267.3260
  14   1.0000      -9.824041      -267.3258
  15   1.0000      -9.823456      -267.3098
  16   1.0000      -9.823429      -267.3091
  17   1.0000      -9.823275      -267.3049
  18   1.0000      -9.823267      -267.3047
  19   1.0000      -9.812399      -267.0090
  20   1.0000      -9.812317      -267.0067
  21   1.0000      -7.587299      -206.4609
  22   1.0000      -7.587284      -206.4605
  23   1.0000      -7.579011      -206.2354
  24   1.0000      -7.578984      -206.2346
  25   1.0000      -5.511053      -149.9634
  26   1.0000      -5.511039      -149.9630
  27   1.0000      -5.504893      -149.7958
  28   1.0000      -5.504880      -149.7954
  29   1.0000      -5.503233      -149.7506
  30   1.0000      -5.503219      -149.7502
  31   1.0000      -5.501842      -149.7127
  32   1.0000      -5.501814      -149.7120
  33   1.0000      -5.497185      -149.5860
  34   1.0000      -5.497161      -149.5853
  35   1.0000      -5.495120      -149.5298
  36   1.0000      -5.495093      -149.5291
  37   1.0000      -4.023823      -109.4938
  38   1.0000      -2.546209       -69.2859
  39   1.0000      -2.542703       -69.1905
  40   1.0000      -2.516376       -68.4741
  41   1.0000      -0.589491       -16.0409
  42   1.0000      -0.589347       -16.0369
  43   1.0000      -0.504863       -13.7380
  44   1.0000      -0.503826       -13.7098
  45   1.0000      -0.489761       -13.3271
  46   1.0000      -0.489503       -13.3201
  47   1.0000      -0.409035       -11.1304
  48   1.0000      -0.406865       -11.0714
  49   1.0000      -0.386632       -10.5208
  50   1.0000      -0.379946       -10.3389
  51   1.0000      -0.322325        -8.7709
  52   1.0000      -0.319982        -8.7072
  53   1.0000      -0.298465        -8.1216
  54   1.0000      -0.295247        -8.0341
  55   1.0000      -0.232123        -6.3164
  56   1.0000      -0.226878        -6.1737
  57   1.0000      -0.189066        -5.1448
  58   1.0000      -0.188306        -5.1241
  59   1.0000      -0.177257        -4.8234
  60   1.0000      -0.174330        -4.7438
  61   1.0000      -0.146579        -3.9886
  62   1.0000      -0.145607        -3.9622
  63   1.0000      -0.128243        -3.4897
  64   1.0000      -0.116826        -3.1790
  65   1.0000      -0.116697        -3.1755
  66   1.0000      -0.111820        -3.0428
  67   1.0000      -0.088312        -2.4031
  68   1.0000      -0.071328        -1.9409
  69   1.0000      -0.062620        -1.7040
  70   1.0000      -0.059614        -1.6222
  71   1.0000      -0.038874        -1.0578
  72   1.0000      -0.037132        -1.0104
  73   1.0000      -0.031942        -0.8692
  74   1.0000      -0.027899        -0.7592
  75   1.0000      -0.026387        -0.7180
  76   1.0000      -0.018973        -0.5163
  77   1.0000      -0.003923        -0.1067
  78   1.0000      -0.000132        -0.0036
  79   1.0000       0.002666         0.0725
  80   1.0000       0.019209         0.5227
  81   1.0000       0.019469         0.5298
  82   1.0000       0.036424         0.9911
  83   1.0000       0.048250         1.3130
  84   1.0000       0.053196         1.4475
  85   1.0000       0.064881         1.7655
  86   1.0000       0.088341         2.4039
  87   1.0000       0.105696         2.8761
  88   0.0000       0.181350         4.9348
  89   0.0000       0.181464         4.9379
  90   0.0000       0.196670         5.3517
  91   0.0000       0.196844         5.3564
  92   0.0000       0.199939         5.4406

                 SPIN DOWN ORBITALS
  NO   OCC          E(Eh)            E(eV)
   0   1.0000    -318.180998     -8658.1451
   1   1.0000     -88.018876     -2395.1154
   2   1.0000     -88.018846     -2395.1146
   3   1.0000     -88.007853     -2394.8154
   4   1.0000     -88.007814     -2394.8144
   5   1.0000     -38.010823     -1034.3271
   6   1.0000     -33.514791      -911.9838
   7   1.0000     -33.513643      -911.9526
   8   1.0000     -33.510746      -911.8738
   9   1.0000      -9.837763      -267.6991
  10   1.0000      -9.837760      -267.6991
  11   1.0000      -9.828726      -267.4532
  12   1.0000      -9.828636      -267.4508
  13   1.0000      -9.824043      -267.3258
  14   1.0000      -9.824035      -267.3256
  15   1.0000      -9.823405      -267.3084
  16   1.0000      -9.823377      -267.3077
  17   1.0000      -9.823238      -267.3039
  18   1.0000      -9.823229      -267.3036
  19   1.0000      -9.812296      -267.0061
  20   1.0000      -9.812213      -267.0039
  21   1.0000      -7.586687      -206.4442
  22   1.0000      -7.586671      -206.4438
  23   1.0000      -7.578144      -206.2118
  24   1.0000      -7.578116      -206.2110
  25   1.0000      -5.510278      -149.9423
  26   1.0000      -5.510264      -149.9419
  27   1.0000      -5.503027      -149.7450
  28   1.0000      -5.503014      -149.7446
  29   1.0000      -5.502544      -149.7318
  30   1.0000      -5.502530      -149.7315
  31   1.0000      -5.500735      -149.6826
  32   1.0000      -5.500707      -149.6818
  33   1.0000      -5.494515      -149.5134
  34   1.0000      -5.494485      -149.5126
  35   1.0000      -5.494163      -149.5038
  36   1.0000      -5.494134      -149.5030
  37   1.0000      -3.990773      -108.5944
  38   1.0000      -2.504851       -68.1605
  39   1.0000      -2.504260       -68.1444
  40   1.0000      -2.502170       -68.0875
  41   1.0000      -0.589077       -16.0296
  42   1.0000      -0.588942       -16.0259
  43   1.0000      -0.503466       -13.7000
  44   1.0000      -0.502487       -13.6734
  45   1.0000      -0.488707       -13.2984
  46   1.0000      -0.488458       -13.2916
  47   1.0000      -0.405179       -11.0255
  48   1.0000      -0.402929       -10.9643
  49   1.0000      -0.383362       -10.4318
  50   1.0000      -0.376766       -10.2523
  51   1.0000      -0.321137        -8.7386
  52   1.0000      -0.318525        -8.6675
  53   1.0000      -0.296579        -8.0703
  54   1.0000      -0.292975        -7.9723
  55   1.0000      -0.231428        -6.2975
  56   1.0000      -0.226059        -6.1514
  57   1.0000      -0.188075        -5.1178
  58   1.0000      -0.187398        -5.0994
  59   1.0000      -0.176654        -4.8070
  60   1.0000      -0.173366        -4.7175
  61   1.0000      -0.145915        -3.9706
  62   1.0000      -0.144031        -3.9193
  63   1.0000      -0.126986        -3.4555
  64   1.0000      -0.116640        -3.1739
  65   1.0000      -0.116493        -3.1699
  66   1.0000      -0.110872        -3.0170
  67   1.0000      -0.085800        -2.3347
  68   1.0000      -0.069876        -1.9014
  69   1.0000      -0.057832        -1.5737
  70   1.0000      -0.049752        -1.3538
  71   1.0000      -0.036816        -1.0018
  72   1.0000      -0.036238        -0.9861
  73   1.0000      -0.023107        -0.6288
  74   1.0000      -0.022118        -0.6019
  75   1.0000      -0.018157        -0.4941
  76   1.0000      -0.001813        -0.0493
  77   1.0000       0.004857         0.1322
  78   1.0000       0.010526         0.2864
  79   1.0000       0.015166         0.4127
  80   1.0000       0.025945         0.7060
  81   1.0000       0.034475         0.9381
  82   1.0000       0.045022         1.2251
  83   1.0000       0.050716         1.3800
  84   1.0000       0.058799         1.6000
  85   1.0000       0.067154         1.8274
  86   1.0000       0.092544         2.5183
  87   0.0000       0.138148         3.7592
  88   0.0000       0.182700         4.9715
  89   0.0000       0.182798         4.9742
  90   0.0000       0.198894         5.4122
  91   0.0000       0.199103         5.4179

MULLIKEN ATOMIC CHARGES AND SPIN POPULATIONS
--------------------------------------------
   0 Cu:    0.141491    0.369252
   1 S :   -0.433385    0.141259
   2 C :   -0.043560   -0.006198
   3 S :   -0.400077    0.187455
   4 C :    0.067724   -0.009550
   5 S :   -0.400501    0.187683
   6 C :    0.067909   -0.009564
   7 S :   -0.433737    0.141193
   8 C :   -0.043041   -0.006195
   9 C :   -0.103815   -0.001108
  10 C :   -0.066810   -0.000752
  11 C :   -0.136194    0.000499
  12 H :    0.064913    0.002627
  13 C :   -0.139062   -0.002222
  14 H :    0.057662    0.001010
  15 H :    0.024140    0.001027
  16 H :    0.037551    0.001238
  17 C :   -0.103836   -0.001098
  18 C :   -0.066171   -0.000747
  19 C :   -0.139104   -0.002230
  20 H :    0.057576    0.001011
  21 C :   -0.136268    0.000504
  22 H :    0.064802    0.002633
  23 H :    0.037478    0.001247
  24 H :    0.024315    0.001023
Sum of atomic charges         :   -2.0000000

LOEWDIN ATOMIC CHARGES AND SPIN POPULATIONS
-------------------------------------------
   0 Cu:   -0.898883    0.436246
   1 S :    0.013532    0.103216
   2 C :   -0.014257    0.004583
   3 S :    0.010527    0.146312
   4 C :   -0.052949    0.004692
   5 S :    0.010463    0.146590
   6 C :   -0.053294    0.004676
   7 S :    0.013442    0.103250
   8 C :   -0.014627    0.004572
   9 C :    0.309006    0.002341
  10 C :    0.299054    0.006649
  11 C :    0.311477    0.000829
  12 H :   -0.467340    0.010018
  13 C :    0.310353   -0.000920
  14 H :   -0.432131    0.003560
  15 H :   -0.408396    0.000279
  16 H :   -0.428942    0.000141
  17 C :    0.308889    0.002351
  18 C :    0.298844    0.006675
  19 C :    0.310344   -0.000919
  20 H :   -0.431995    0.003555
  21 C :    0.311663    0.000831
  22 H :   -0.467383    0.010052
  23 H :   -0.428849    0.000144
  24 H :   -0.408549    0.000278

  Mayer bond orders larger than 0.100000
B(  0-Cu,  1-S ) :   0.7707 B(  0-Cu,  3-S ) :   0.6386 B(  0-Cu,  5-S ) :   0.6373
B(  0-Cu,  7-S ) :   0.7694 B(  1-S ,  2-C ) :   1.1594 B(  2-C ,  6-C ) :   1.2480
B(  2-C , 17-C ) :   1.3297 B(  3-S ,  4-C ) :   1.2054 B(  4-C ,  8-C ) :   1.2479
B(  4-C , 10-C ) :   1.2988 B(  5-S ,  6-C ) :   1.2056 B(  6-C , 18-C ) :   1.2987
B(  7-S ,  8-C ) :   1.1598 B(  8-C ,  9-C ) :   1.3297 B(  9-C , 13-C ) :   1.3598
B(  9-C , 14-H ) :   0.9769 B( 10-C , 11-C ) :   1.3672 B( 10-C , 12-H ) :   0.9644
B( 11-C , 13-C ) :   1.3365 B( 11-C , 15-H ) :   0.9920 B( 13-C , 16-H ) :   0.9858
B( 17-C , 19-C ) :   1.3600 B( 17-C , 20-H ) :   0.9770 B( 18-C , 21-C ) :   1.3673
B( 18-C , 22-H ) :   0.9644 B( 19-C , 21-C ) :   1.3363 B( 19-C , 23-H ) :   0.9859
B( 21-C , 24-H ) :   0.9919

FINAL SINGLE POINT ENERGY     -3686.907472470112

DIPOLE MOMENT
-------------
                                X             Y             Z
Electronic contribution:     -0.00110       0.00143       0.00217
Nuclear contribution   :      0.00152      -0.00215      -0.00100
                        -----------------------------------------
Total Dipole Moment    :      0.00042      -0.00072       0.00118
                        -----------------------------------------
Magnitude (a.u.)       :      0.00144
Magnitude (Debye)      :      0.00367

Rotational constants in cm-1:     0.033386     0.004803     0.004199
Rotational constants in MHz :  1000.884655   143.979656   125.872583

                             ****ORCA TERMINATED NORMALLY****
TOTAL RUN TIME: 0 days 6 hours 19 minutes 58 seconds 16 msec
