                         Program Version 5.0.4 -  RELEASE  -
|  1> ! RIJCOSX nofrozencore ReducedPop printbasis
|  2> ! M06L ano-rcc-dzp autoaux
|  3>
|  4> %maxcore 5000
|  5> %basis
|  6> PCDTrimBas overlap
|  7> PCDTrimAuxJ Coulomb
|  8> PCDTrimAuxJK Coulomb
|  9> PCDTrimAuxC Coulomb
| 10> PCDThresh -1
| 11> end
| 12>
| 13> %basis
| 14> newgto Cu "ano-rcc-tzp" end
| 15> newgto S "ano-rcc-tzp" end
| 16> end
| 17>
| 18> %pal
| 19> nprocs 8
| 20> end
| 21>
| 22> % sym SymThresh 1e-2 end
| 23> * xyz -2 2
| 24> Cu -3.8004163660036257e-06 2.9617313807422802e-06 -1.2074145215017841e-05
| 25> S -1.394111386827014 -1.600325196010757 -0.9378400226463957
| 26> C -1.7154822526248283 -0.940057679797829 -2.4913908989669538
| 27> S 0.17963214724821014 -1.2127551658515552 1.964704382250766
| 28> C 1.2308493720443405 -0.2788092850756571 3.0263183888245555
| 29> S -0.17967245453288372 1.2123731832542373 -1.9642952555978228
| 30> C -1.2322337004356436 0.2873900785440851 -3.0404648950489634
| 31> S 1.3936954913957618 1.5999828012060355 0.937384793266892
| 32> C 1.7254357698424172 0.9495870452262302 2.5005511259582
| 33> C 2.6003293778274705 1.7239853212668352 3.387858550066234
| 34> C 1.5634381396636428 -0.6754060048432287 4.261522371248542
| 35> C 2.387792956883177 0.05248311478835979 5.099881139368074
| 36> H 1.0281732853348524 -1.6483007314561193 4.3672349867454985
| 37> C 2.916297643966034 1.2668182248287243 4.665797619017777
| 38> H 3.125797674612507 2.7004029210441765 3.2563647142149352
| 39> H 2.590187592355014 -0.3659900601390207 6.081723478487456
| 40> H 3.5624074953347358 1.8203745983735051 5.344903815203076
| 41> C -2.602393965036698 -1.728821570064615 -3.386042635084339
| 42> C -1.564764912345085 0.6711209887755221 -4.258825847272889
| 43> C -2.919107955971502 -1.2705175696189468 -4.6670730807204475
| 44> H -3.1683593358012914 -2.716154188843796 -3.3280161624107385
| 45> C -2.388825496477684 -0.05620252392710356 -5.097282761673357
| 46> H -0.992332239752746 1.6522868162792541 -4.294841222985323
| 47> H -3.5640606588896726 -1.8123633125380023 -5.358892135742815
| 48> H -2.582991455221451 0.37387109595365936 -6.076389337427892
| 49> *
| 50>
| 51> % eprnmr
| 52> gtensor true
| 53> Nuclei = all H {aiso,adip,aorb,fgrad,rho}
| 54> Nuclei = all Cu {aiso,adip,aorb,fgrad,rho}
| 55> end
| 56>
| 57>                          ****END OF INPUT****

CARTESIAN COORDINATES (ANGSTROEM)
---------------------------------
  Cu     0.000002   -0.000013    0.000000
  S     -1.967742   -1.229683    0.000000
  C     -1.388002   -2.847291    0.000000
  S     -1.171162    1.997870    0.000000
  C      0.038727    3.278693    0.000000
  S      1.170768   -1.997471    0.000000
  C     -0.030469   -3.293097    0.000000
  S      1.967291    1.229142    0.000000
  C      1.400147    2.858529    0.000000
  C      2.404192    3.928268    0.000000
  C     -0.273370    4.581087    0.000000
  C      0.670892    5.591333    0.000000
  H     -1.388786    4.573626    0.000000
  C      2.026976    5.269787    0.000000
  H      3.520608    3.907943    0.000000
  H      0.303123    6.613509    0.000000
  H      2.750052    6.083562    0.000000
  C     -2.409582   -3.926891    0.000000
  C      0.268724   -4.578676    0.000000
  C     -2.031418   -5.271652    0.000000
  H     -3.547442   -3.988400    0.000000
  C     -0.674894   -5.588958    0.000000
  H      1.402067   -4.493845    0.000000
  H     -2.742436   -6.097865    0.000000
  H     -0.293347   -6.606669    0.000000

 Total Charge           Charge          ....   -2
 Multiplicity           Mult            ....    2
 Number of Electrons    NEL             ....  175
 Basis Dimension        Dim             ....  475

ORBITAL ENERGIES
----------------
                 SPIN UP ORBITALS
  NO   OCC          E(Eh)            E(eV)    Irrep
   0   1.0000    -318.183410     -8658.2108    1-A'
   1   1.0000     -88.020338     -2395.1552    2-A'
   2   1.0000     -88.019133     -2395.1224    3-A'
   3   1.0000     -88.013469     -2394.9682    4-A'
   4   1.0000     -88.012821     -2394.9506    5-A'
   5   1.0000     -38.028508     -1034.8083    6-A'
   6   1.0000     -33.531641      -912.4423    7-A'
   7   1.0000     -33.530809      -912.4197    8-A'
   8   1.0000     -33.517023      -912.0446    1-A"
   9   1.0000      -9.845800      -267.9178    9-A'
  10   1.0000      -9.842773      -267.8355   10-A'
  11   1.0000      -9.829232      -267.4670   11-A'
  12   1.0000      -9.826037      -267.3801   12-A'
  13   1.0000      -9.825789      -267.3733   13-A'
  14   1.0000      -9.825263      -267.3590   14-A'
  15   1.0000      -9.825116      -267.3550   15-A'
  16   1.0000      -9.824127      -267.3281   16-A'
  17   1.0000      -9.823637      -267.3148   17-A'
  18   1.0000      -9.823071      -267.2993   18-A'
  19   1.0000      -9.812760      -267.0188   19-A'
  20   1.0000      -9.811760      -266.9916   20-A'
  21   1.0000      -7.589174      -206.5119   21-A'
  22   1.0000      -7.587893      -206.4771   22-A'
  23   1.0000      -7.582038      -206.3177   23-A'
  24   1.0000      -7.581384      -206.2999   24-A'
  25   1.0000      -5.512206      -149.9948   25-A'
  26   1.0000      -5.510973      -149.9612   26-A'
  27   1.0000      -5.507036      -149.8541   27-A'
  28   1.0000      -5.505777      -149.8198   28-A'
  29   1.0000      -5.505460      -149.8112    2-A"
  30   1.0000      -5.505357      -149.8084   29-A'
  31   1.0000      -5.504725      -149.7912   30-A'
  32   1.0000      -5.504121      -149.7747    3-A"
  33   1.0000      -5.500044      -149.6638   31-A'
  34   1.0000      -5.499413      -149.6466   32-A'
  35   1.0000      -5.497919      -149.6060    4-A"
  36   1.0000      -5.497213      -149.5868    5-A"
  37   1.0000      -4.026099      -109.5557   33-A'
  38   1.0000      -2.547528       -69.3218   34-A'
  39   1.0000      -2.546029       -69.2810   35-A'
  40   1.0000      -2.518558       -68.5334    6-A"
  41   1.0000      -0.592341       -16.1184   36-A'
  42   1.0000      -0.591915       -16.1068   37-A'
  43   1.0000      -0.507956       -13.8222   38-A'
  44   1.0000      -0.506751       -13.7894   39-A'
  45   1.0000      -0.490961       -13.3597   40-A'
  46   1.0000      -0.490814       -13.3557   41-A'
  47   1.0000      -0.412757       -11.2317   42-A'
  48   1.0000      -0.410453       -11.1690   43-A'
  49   1.0000      -0.387613       -10.5475   44-A'
  50   1.0000      -0.381473       -10.3804   45-A'
  51   1.0000      -0.324593        -8.8326   46-A'
  52   1.0000      -0.322868        -8.7857   47-A'
  53   1.0000      -0.298415        -8.1203   48-A'
  54   1.0000      -0.295850        -8.0505   49-A'
  55   1.0000      -0.231705        -6.3050   50-A'
  56   1.0000      -0.226109        -6.1527   51-A'
  57   1.0000      -0.201042        -5.4706   52-A'
  58   1.0000      -0.199113        -5.4181   53-A'
  59   1.0000      -0.163685        -4.4541   54-A'
  60   1.0000      -0.158165        -4.3039   55-A'
  61   1.0000      -0.142687        -3.8827   56-A'
  62   1.0000      -0.138488        -3.7684   57-A'
  63   1.0000      -0.128810        -3.5051   58-A'
  64   1.0000      -0.119065        -3.2399    7-A"
  65   1.0000      -0.118840        -3.2338    8-A"
  66   1.0000      -0.110089        -2.9957   59-A'
  67   1.0000      -0.078112        -2.1255   60-A'
  68   1.0000      -0.071159        -1.9363   61-A'
  69   1.0000      -0.066967        -1.8223   62-A'
  70   1.0000      -0.055059        -1.4982   63-A'
  71   1.0000      -0.040477        -1.1014    9-A"
  72   1.0000      -0.038908        -1.0587   10-A"
  73   1.0000      -0.037367        -1.0168   64-A'
  74   1.0000      -0.028416        -0.7732   11-A"
  75   1.0000      -0.026470        -0.7203   65-A'
  76   1.0000      -0.021314        -0.5800   12-A"
  77   1.0000      -0.005263        -0.1432   13-A"
  78   1.0000      -0.001913        -0.0521   66-A'
  79   1.0000       0.000485         0.0132   14-A"
  80   1.0000       0.016837         0.4582   67-A'
  81   1.0000       0.017221         0.4686   68-A'
  82   1.0000       0.033069         0.8999   69-A'
  83   1.0000       0.048904         1.3308   15-A"
  84   1.0000       0.051025         1.3885   16-A"
  85   1.0000       0.061602         1.6763   17-A"
  86   1.0000       0.086362         2.3500   18-A"
  87   1.0000       0.103213         2.8086   70-A'
  88   0.0000       0.180709         4.9174   71-A'
  89   0.0000       0.180800         4.9198   72-A'
  90   0.0000       0.196216         5.3393   19-A"
  91   0.0000       0.196691         5.3522   73-A'
  92   0.0000       0.197078         5.3628   74-A'

                 SPIN DOWN ORBITALS
  NO   OCC          E(Eh)            E(eV)    Irrep
   0   1.0000    -318.183236     -8658.2060    1-A'
   1   1.0000     -88.019249     -2395.1255    2-A'
   2   1.0000     -88.018048     -2395.0928    3-A'
   3   1.0000     -88.012410     -2394.9394    4-A'
   4   1.0000     -88.011779     -2394.9222    5-A'
   5   1.0000     -38.012643     -1034.3766    6-A'
   6   1.0000     -33.516485      -912.0299    7-A'
   7   1.0000     -33.515684      -912.0081    8-A'
   8   1.0000     -33.512701      -911.9270    1-A"
   9   1.0000      -9.845929      -267.9213    9-A'
  10   1.0000      -9.842899      -267.8389   10-A'
  11   1.0000      -9.829181      -267.4656   11-A'
  12   1.0000      -9.825987      -267.3787   12-A'
  13   1.0000      -9.825899      -267.3763   13-A'
  14   1.0000      -9.825223      -267.3579   14-A'
  15   1.0000      -9.825082      -267.3541   15-A'
  16   1.0000      -9.824236      -267.3311   16-A'
  17   1.0000      -9.823620      -267.3143   17-A'
  18   1.0000      -9.823055      -267.2989   18-A'
  19   1.0000      -9.812671      -267.0164   19-A'
  20   1.0000      -9.811653      -266.9887   20-A'
  21   1.0000      -7.588423      -206.4915   21-A'
  22   1.0000      -7.587147      -206.4568   22-A'
  23   1.0000      -7.581318      -206.2981   23-A'
  24   1.0000      -7.580676      -206.2807   24-A'
  25   1.0000      -5.511271      -149.9693   25-A'
  26   1.0000      -5.510037      -149.9357   26-A'
  27   1.0000      -5.504731      -149.7913   27-A'
  28   1.0000      -5.504622      -149.7884    2-A"
  29   1.0000      -5.504436      -149.7833   28-A'
  30   1.0000      -5.503818      -149.7665   29-A'
  31   1.0000      -5.503486      -149.7575   30-A'
  32   1.0000      -5.503289      -149.7521    3-A"
  33   1.0000      -5.497836      -149.6037   31-A'
  34   1.0000      -5.497242      -149.5876   32-A'
  35   1.0000      -5.497119      -149.5842    4-A"
  36   1.0000      -5.496426      -149.5654    5-A"
  37   1.0000      -3.992372      -108.6380   33-A'
  38   1.0000      -2.506841       -68.2146    6-A"
  39   1.0000      -2.505482       -68.1776   34-A'
  40   1.0000      -2.503965       -68.1363   35-A'
  41   1.0000      -0.591961       -16.1081   36-A'
  42   1.0000      -0.591551       -16.0969   37-A'
  43   1.0000      -0.506856       -13.7922   38-A'
  44   1.0000      -0.505649       -13.7594   39-A'
  45   1.0000      -0.489692       -13.3252   40-A'
  46   1.0000      -0.489389       -13.3170   41-A'
  47   1.0000      -0.409189       -11.1346   42-A'
  48   1.0000      -0.406827       -11.0703   43-A'
  49   1.0000      -0.384099       -10.4519   44-A'
  50   1.0000      -0.378104       -10.2887   45-A'
  51   1.0000      -0.322943        -8.7877   46-A'
  52   1.0000      -0.321020        -8.7354   47-A'
  53   1.0000      -0.296868        -8.0782   48-A'
  54   1.0000      -0.294064        -8.0019   49-A'
  55   1.0000      -0.231107        -6.2887   50-A'
  56   1.0000      -0.225405        -6.1336   51-A'
  57   1.0000      -0.200005        -5.4424   52-A'
  58   1.0000      -0.198102        -5.3906   53-A'
  59   1.0000      -0.162966        -4.4345   54-A'
  60   1.0000      -0.156916        -4.2699   55-A'
  61   1.0000      -0.141695        -3.8557   56-A'
  62   1.0000      -0.137608        -3.7445   57-A'
  63   1.0000      -0.127453        -3.4682   58-A'
  64   1.0000      -0.118881        -3.2349    7-A"
  65   1.0000      -0.118649        -3.2286    8-A"
  66   1.0000      -0.108984        -2.9656   59-A'
  67   1.0000      -0.076051        -2.0694   60-A'
  68   1.0000      -0.069669        -1.8958   61-A'
  69   1.0000      -0.054354        -1.4790   62-A'
  70   1.0000      -0.053464        -1.4548   63-A'
  71   1.0000      -0.038479        -1.0471    9-A"
  72   1.0000      -0.038024        -1.0347   10-A"
  73   1.0000      -0.025249        -0.6871   11-A"
  74   1.0000      -0.022444        -0.6107   64-A'
  75   1.0000      -0.020437        -0.5561   12-A"
  76   1.0000      -0.004450        -0.1211   65-A'
  77   1.0000       0.004854         0.1321   13-A"
  78   1.0000       0.008921         0.2427   66-A'
  79   1.0000       0.012435         0.3384   14-A"
  80   1.0000       0.023960         0.6520   67-A'
  81   1.0000       0.032336         0.8799   68-A'
  82   1.0000       0.041311         1.1241   69-A'
  83   1.0000       0.051739         1.4079   15-A"
  84   1.0000       0.056543         1.5386   16-A"
  85   1.0000       0.063404         1.7253   17-A"
  86   1.0000       0.090481         2.4621   18-A"
  87   0.0000       0.136154         3.7049   70-A'
  88   0.0000       0.182178         4.9573   71-A'
  89   0.0000       0.182419         4.9639   72-A'
  90   0.0000       0.196457         5.3459   19-A"
  91   0.0000       0.198090         5.3903   20-A"

MULLIKEN ATOMIC CHARGES AND SPIN POPULATIONS
--------------------------------------------
   0 Cu:    0.145114    0.374634
   1 S :   -0.383013    0.165603
   2 C :   -0.005851   -0.009664
   3 S :   -0.449526    0.161178
   4 C :    0.090510   -0.007364
   5 S :   -0.451848    0.158314
   6 C :    0.112041   -0.007154
   7 S :   -0.393934    0.165450
   8 C :   -0.002960   -0.009266
   9 C :   -0.118744   -0.000467
  10 C :   -0.096783    0.001035
  11 C :   -0.183234   -0.001692
  12 H :    0.070404    0.001960
  13 C :   -0.087913    0.000021
  14 H :    0.038191    0.000282
  15 H :    0.030785    0.000759
  16 H :    0.031993    0.001561
  17 C :   -0.129255   -0.000201
  18 C :   -0.101861    0.002406
  19 C :   -0.074493    0.000285
  20 H :    0.024970   -0.000062
  21 C :   -0.191519   -0.001887
  22 H :    0.064831    0.001818
  23 H :    0.032045    0.001788
  24 H :    0.030049    0.000664
Sum of atomic charges         :   -2.0000000

LOEWDIN ATOMIC CHARGES AND SPIN POPULATIONS
-------------------------------------------
   0 Cu:   -0.889271    0.442118
   1 S :    0.003885    0.127512
   2 C :   -0.028485    0.004898
   3 S :    0.026228    0.120752
   4 C :   -0.049493    0.004517
   5 S :    0.034968    0.117849
   6 C :   -0.053984    0.004215
   7 S :    0.005266    0.126956
   8 C :   -0.030122    0.004965
   9 C :    0.313820    0.004065
  10 C :    0.284170    0.004350
  11 C :    0.310639   -0.000486
  12 H :   -0.460538    0.010133
  13 C :    0.304162    0.000433
  14 H :   -0.419928    0.003537
  15 H :   -0.424885   -0.000131
  16 H :   -0.411950    0.000551
  17 C :    0.311925    0.004147
  18 C :    0.275411    0.004750
  19 C :    0.299562    0.000666
  20 H :   -0.407901    0.002871
  21 C :    0.308635   -0.000525
  22 H :   -0.464371    0.011399
  23 H :   -0.410594    0.000693
  24 H :   -0.427151   -0.000235

  Mayer bond orders larger than 0.100000
B(  0-Cu,  1-S ) :   0.6952 B(  0-Cu,  3-S ) :   0.7027 B(  0-Cu,  5-S ) :   0.7027
B(  0-Cu,  7-S ) :   0.6986 B(  1-S ,  2-C ) :   1.2255 B(  2-C ,  6-C ) :   1.2374
B(  2-C , 17-C ) :   1.2984 B(  3-S ,  4-C ) :   1.1431 B(  4-C ,  8-C ) :   1.2425
B(  4-C , 10-C ) :   1.3341 B(  5-S ,  6-C ) :   1.1296 B(  6-C , 18-C ) :   1.3428
B(  7-S ,  8-C ) :   1.2149 B(  8-C ,  9-C ) :   1.3025 B(  9-C , 13-C ) :   1.3723
B(  9-C , 14-H ) :   0.9849 B( 10-C , 11-C ) :   1.3535 B( 10-C , 12-H ) :   0.9528
B( 11-C , 13-C ) :   1.3405 B( 11-C , 15-H ) :   0.9925 B( 13-C , 16-H ) :   0.9848
B( 17-C , 19-C ) :   1.3714 B( 17-C , 20-H ) :   0.9878 B( 18-C , 21-C ) :   1.3483
B( 18-C , 22-H ) :   0.9502 B( 19-C , 21-C ) :   1.3432 B( 19-C , 23-H ) :   0.9835
B( 21-C , 24-H ) :   0.9935

FINAL SINGLE POINT ENERGY     -3686.861658746708

DIPOLE MOMENT
-------------
                                X             Y             Z
Electronic contribution:     -0.01516       0.06742       0.00000
Nuclear contribution   :      0.00362      -0.00757       0.00000
                        -----------------------------------------
Total Dipole Moment    :     -0.01154       0.05985       0.00000
                        -----------------------------------------
Magnitude (a.u.)       :      0.06096
Magnitude (Debye)      :      0.15494

Rotational constants in cm-1:     0.033414     0.004804     0.004200
Rotational constants in MHz :  1001.740974   144.005846   125.906137

                             ****ORCA TERMINATED NORMALLY****
TOTAL RUN TIME: 0 days 6 hours 17 minutes 6 seconds 363 msec
