                         Program Version 5.0.4 -  RELEASE  -
|  1> ! RIJCOSX nofrozencore ReducedPop printbasis
|  2> ! M06L ano-rcc-dzp autoaux
|  3>
|  4> %maxcore 5000
|  5> %basis
|  6> PCDTrimBas overlap
|  7> PCDTrimAuxJ Coulomb
|  8> PCDTrimAuxJK Coulomb
|  9> PCDTrimAuxC Coulomb
| 10> PCDThresh -1
| 11> end
| 12>
| 13> %basis
| 14> newgto Cu "ano-rcc-tzp" end
| 15> newgto S "ano-rcc-tzp" end
| 16> end
| 17>
| 18> %pal
| 19> nprocs 4
| 20> end
| 21>
| 22> % sym SymThresh 1e-2 end
| 23> * xyz -2 2
| 24> Cu 0.0007775924017662166 0.00021074651352298256 0.0010930329197939804
| 25> S -0.6992229876969559 1.7722757371718942 1.424531821106135
| 26> C 0.39038982781663956 1.8091518596564717 2.63902078983168
| 27> S -1.749885514064033 0.21338334061248093 -1.6159049196010613
| 28> C -1.4613252021588963 -0.930774708960062 -2.7103131523810258
| 29> S 1.7453432615873083 -0.22336561603327396 1.5987809785867646
| 30> C 1.471331850387853 0.9278726576459806 2.71748978121303
| 31> S 0.6842260858937999 -1.7739863907918259 -1.4427238539914151
| 32> C -0.38786218642630804 -1.8143207301710123 -2.64265142732471
| 33> C -0.1414391665569991 -2.780359037106337 -3.563696252712173
| 34> C -2.3787986324209656 -0.9462394961092837 -3.713808682999165
| 35> C -2.138826444472845 -1.9111232283896937 -4.640358897645418
| 36> H -3.1995392255033774 -0.23995264745877143 -3.727804104931317
| 37> C -1.0601866936906947 -2.7993472716249133 -4.572882788232533
| 38> H 0.7085475013860776 -3.443697920021131 -3.4656158533737806
| 39> H -2.806021338493811 -2.0223580190159622 -5.49281105323169
| 40> H -0.977380773237926 -3.527874966719371 -5.378037664066572
| 41> C 0.15586323772817753 2.775236319868681 3.572888014890983
| 42> C 2.3828653580870545 0.9598165709600416 3.7348337110812793
| 43> C 1.0663612951253079 2.8088603827532483 4.591182626668531
| 44> H -0.6939593204304054 3.439502236303065 3.476117503269989
| 45> C 2.1478680174819593 1.9275330710687222 4.670198545477965
| 46> H 3.2072028328511113 0.2578903358760672 3.758039990112071
| 47> H 0.9665608751185124 3.5442156978837365 5.3864815638586965
| 48> H 2.815980207792931 2.037457392432277 5.522026884722814
| 49> *
| 50>
| 51> % eprnmr
| 52> gtensor true
| 53> Nuclei = all H {aiso,adip,aorb,fgrad,rho}
| 54> Nuclei = all Cu {aiso,adip,aorb,fgrad,rho}
| 55> end
| 56>
| 57>                          ****END OF INPUT****

CARTESIAN COORDINATES (ANGSTROEM)
---------------------------------
  Cu     0.001158    0.000709    0.000000
  S      1.993186   -1.298605    0.000000
  C      3.215973   -0.217683    0.000000
  S     -1.542107   -1.827755    0.000000
  C     -3.003109   -1.152799    0.000000
  S      1.521807    1.826560    0.000000
  C      3.009326    1.163817    0.000000
  S     -2.011877    1.284133    0.000000
  C     -3.221263    0.221961    0.000000
  C     -4.451841    0.794636    0.000000
  C     -4.008611   -2.068204    0.000000
  C     -5.244304   -1.502391    0.000000
  H     -3.794251   -3.129666    0.000000
  C     -5.464155   -0.120861    0.000000
  H     -4.568483    1.870977    0.000000
  H     -6.130171   -2.134401    0.000000
  H     -6.502411    0.207632    0.000000
  C      4.459349   -0.778437    0.000000
  C      4.033962    2.067712    0.000000
  C      5.485476    0.123853    0.000000
  H      4.577597   -1.854926    0.000000
  C      5.279359    1.505936    0.000000
  H      3.830195    3.131314    0.000000
  H      6.516112   -0.223993    0.000000
  H      6.164180    2.139308    0.000000

 Total Charge           Charge          ....   -2
 Multiplicity           Mult            ....    2
 Number of Electrons    NEL             ....  175
 Basis Dimension        Dim             ....  475

ORBITAL ENERGIES
----------------
                 SPIN UP ORBITALS
  NO   OCC          E(Eh)            E(eV)    Irrep
   0   1.0000    -318.171579     -8657.8888    1-A'
   1   1.0000     -88.002422     -2394.6676    2-A'
   2   1.0000     -88.002150     -2394.6602    3-A'
   3   1.0000     -88.000930     -2394.6270    4-A'
   4   1.0000     -88.000030     -2394.6026    5-A'
   5   1.0000     -38.016249     -1034.4747    6-A'
   6   1.0000     -33.519536      -912.1130    7-A'
   7   1.0000     -33.518720      -912.0908    8-A'
   8   1.0000     -33.505399      -911.7283    1-A"
   9   1.0000      -9.812119      -267.0013    9-A'
  10   1.0000      -9.811764      -266.9917   10-A'
  11   1.0000      -9.811655      -266.9887   11-A'
  12   1.0000      -9.811230      -266.9771   12-A'
  13   1.0000      -9.810277      -266.9512   13-A'
  14   1.0000      -9.809351      -266.9260   14-A'
  15   1.0000      -9.808750      -266.9096   15-A'
  16   1.0000      -9.808284      -266.8970   16-A'
  17   1.0000      -9.805090      -266.8101   17-A'
  18   1.0000      -9.804721      -266.8000   18-A'
  19   1.0000      -9.803818      -266.7754   19-A'
  20   1.0000      -9.802817      -266.7482   20-A'
  21   1.0000      -7.574833      -206.1217   21-A'
  22   1.0000      -7.574695      -206.1179   22-A'
  23   1.0000      -7.574221      -206.1050   23-A'
  24   1.0000      -7.573406      -206.0828   24-A'
  25   1.0000      -5.497165      -149.5855   25-A'
  26   1.0000      -5.497013      -149.5813   26-A'
  27   1.0000      -5.496437      -149.5657   27-A'
  28   1.0000      -5.495606      -149.5431   28-A'
  29   1.0000      -5.492679      -149.4634   29-A'
  30   1.0000      -5.492500      -149.4585   30-A'
  31   1.0000      -5.492032      -149.4458   31-A'
  32   1.0000      -5.491206      -149.4233   32-A'
  33   1.0000      -5.491003      -149.4178    2-A"
  34   1.0000      -5.490887      -149.4146    3-A"
  35   1.0000      -5.490381      -149.4009    4-A"
  36   1.0000      -5.489553      -149.3783    5-A"
  37   1.0000      -4.014684      -109.2451   33-A'
  38   1.0000      -2.535604       -68.9973   34-A'
  39   1.0000      -2.534582       -68.9695   35-A'
  40   1.0000      -2.508120       -68.2494    6-A"
  41   1.0000      -0.607556       -16.5325   36-A'
  42   1.0000      -0.603523       -16.4227   37-A'
  43   1.0000      -0.517482       -14.0814   38-A'
  44   1.0000      -0.511870       -13.9287   39-A'
  45   1.0000      -0.511755       -13.9256   40-A'
  46   1.0000      -0.509896       -13.8750   41-A'
  47   1.0000      -0.419997       -11.4287   42-A'
  48   1.0000      -0.417659       -11.3651   43-A'
  49   1.0000      -0.380397       -10.3511   44-A'
  50   1.0000      -0.376950       -10.2573   45-A'
  51   1.0000      -0.329733        -8.9725   46-A'
  52   1.0000      -0.327205        -8.9037   47-A'
  53   1.0000      -0.285297        -7.7633   48-A'
  54   1.0000      -0.282209        -7.6793   49-A'
  55   1.0000      -0.221334        -6.0228   50-A'
  56   1.0000      -0.215962        -5.8766   51-A'
  57   1.0000      -0.199468        -5.4278   52-A'
  58   1.0000      -0.196277        -5.3410   53-A'
  59   1.0000      -0.188991        -5.1427   54-A'
  60   1.0000      -0.186051        -5.0627   55-A'
  61   1.0000      -0.142684        -3.8826   56-A'
  62   1.0000      -0.138494        -3.7686   57-A'
  63   1.0000      -0.129801        -3.5321    7-A"
  64   1.0000      -0.126882        -3.4526    8-A"
  65   1.0000      -0.114846        -3.1251   58-A'
  66   1.0000      -0.107687        -2.9303   59-A'
  67   1.0000      -0.092396        -2.5142   60-A'
  68   1.0000      -0.073196        -1.9918   61-A'
  69   1.0000      -0.055442        -1.5086   62-A'
  70   1.0000      -0.051440        -1.3997   63-A'
  71   1.0000      -0.037642        -1.0243    9-A"
  72   1.0000      -0.037523        -1.0211   10-A"
  73   1.0000      -0.036609        -0.9962   11-A"
  74   1.0000      -0.033345        -0.9074   12-A"
  75   1.0000      -0.026714        -0.7269   64-A'
  76   1.0000      -0.019776        -0.5381   65-A'
  77   1.0000       0.004833         0.1315   13-A"
  78   1.0000       0.007809         0.2125   66-A'
  79   1.0000       0.009786         0.2663   14-A"
  80   1.0000       0.025727         0.7001   67-A'
  81   1.0000       0.027428         0.7464   68-A'
  82   1.0000       0.045508         1.2383   69-A'
  83   1.0000       0.051504         1.4015   15-A"
  84   1.0000       0.054387         1.4799   16-A"
  85   1.0000       0.079865         2.1732   17-A"
  86   1.0000       0.100289         2.7290   18-A"
  87   1.0000       0.106060         2.8860   70-A'
  88   0.0000       0.185592         5.0502   71-A'
  89   0.0000       0.186149         5.0654   72-A'
  90   0.0000       0.199241         5.4216   73-A'
  91   0.0000       0.199474         5.4280   74-A'
  92   0.0000       0.205712         5.5977   19-A"

                 SPIN DOWN ORBITALS
  NO   OCC          E(Eh)            E(eV)    Irrep
   0   1.0000    -318.171412     -8657.8843    1-A'
   1   1.0000     -88.001350     -2394.6385    2-A'
   2   1.0000     -88.001087     -2394.6313    3-A'
   3   1.0000     -87.999824     -2394.5970    4-A'
   4   1.0000     -87.998942     -2394.5730    5-A'
   5   1.0000     -38.000765     -1034.0534    6-A'
   6   1.0000     -33.504747      -911.7105    7-A'
   7   1.0000     -33.503940      -911.6886    8-A'
   8   1.0000     -33.501185      -911.6136    1-A"
   9   1.0000      -9.812182      -267.0031    9-A'
  10   1.0000      -9.811719      -266.9904   10-A'
  11   1.0000      -9.811713      -266.9903   11-A'
  12   1.0000      -9.811180      -266.9758   12-A'
  13   1.0000      -9.810221      -266.9497   13-A'
  14   1.0000      -9.809291      -266.9244   14-A'
  15   1.0000      -9.808801      -266.9110   15-A'
  16   1.0000      -9.808335      -266.8984   16-A'
  17   1.0000      -9.804993      -266.8074   17-A'
  18   1.0000      -9.804626      -266.7974   18-A'
  19   1.0000      -9.803710      -266.7725   19-A'
  20   1.0000      -9.802707      -266.7452   20-A'
  21   1.0000      -7.574093      -206.1015   21-A'
  22   1.0000      -7.573964      -206.0980   22-A'
  23   1.0000      -7.573461      -206.0843   23-A'
  24   1.0000      -7.572656      -206.0624   24-A'
  25   1.0000      -5.496172      -149.5584   25-A'
  26   1.0000      -5.496026      -149.5545   26-A'
  27   1.0000      -5.495398      -149.5374   27-A'
  28   1.0000      -5.494577      -149.5150   28-A'
  29   1.0000      -5.490457      -149.4029   29-A'
  30   1.0000      -5.490308      -149.3989   30-A'
  31   1.0000      -5.490191      -149.3957    2-A"
  32   1.0000      -5.490083      -149.3928    3-A"
  33   1.0000      -5.489758      -149.3839   31-A'
  34   1.0000      -5.489545      -149.3781    4-A"
  35   1.0000      -5.488973      -149.3625   32-A'
  36   1.0000      -5.488730      -149.3559    5-A"
  37   1.0000      -3.981581      -108.3443   33-A'
  38   1.0000      -2.496653       -67.9374    6-A"
  39   1.0000      -2.494343       -67.8745   34-A'
  40   1.0000      -2.493201       -67.8435   35-A'
  41   1.0000      -0.606712       -16.5095   36-A'
  42   1.0000      -0.602792       -16.4028   37-A'
  43   1.0000      -0.515689       -14.0326   38-A'
  44   1.0000      -0.510252       -13.8847   39-A'
  45   1.0000      -0.510213       -13.8836   40-A'
  46   1.0000      -0.508430       -13.8351   41-A'
  47   1.0000      -0.416840       -11.3428   42-A'
  48   1.0000      -0.414441       -11.2775   43-A'
  49   1.0000      -0.377961       -10.2849   44-A'
  50   1.0000      -0.374569       -10.1925   45-A'
  51   1.0000      -0.328197        -8.9307   46-A'
  52   1.0000      -0.325668        -8.8619   47-A'
  53   1.0000      -0.283211        -7.7066   48-A'
  54   1.0000      -0.279844        -7.6149   49-A'
  55   1.0000      -0.220341        -5.9958   50-A'
  56   1.0000      -0.214869        -5.8469   51-A'
  57   1.0000      -0.198052        -5.3893   52-A'
  58   1.0000      -0.194939        -5.3046   53-A'
  59   1.0000      -0.188396        -5.1265   54-A'
  60   1.0000      -0.185474        -5.0470   55-A'
  61   1.0000      -0.141471        -3.8496   56-A'
  62   1.0000      -0.135900        -3.6980   57-A'
  63   1.0000      -0.129331        -3.5193    7-A"
  64   1.0000      -0.126466        -3.4413    8-A"
  65   1.0000      -0.113817        -3.0971   58-A'
  66   1.0000      -0.106944        -2.9101   59-A'
  67   1.0000      -0.091273        -2.4837   60-A'
  68   1.0000      -0.071385        -1.9425   61-A'
  69   1.0000      -0.053923        -1.4673   62-A'
  70   1.0000      -0.043865        -1.1936   63-A'
  71   1.0000      -0.036096        -0.9822    9-A"
  72   1.0000      -0.035999        -0.9796   10-A"
  73   1.0000      -0.035681        -0.9709   11-A"
  74   1.0000      -0.032157        -0.8750   12-A"
  75   1.0000      -0.012916        -0.3514   64-A'
  76   1.0000       0.009187         0.2500   65-A'
  77   1.0000       0.016326         0.4443   13-A"
  78   1.0000       0.018918         0.5148   66-A'
  79   1.0000       0.022682         0.6172   14-A"
  80   1.0000       0.034053         0.9266   67-A'
  81   1.0000       0.041176         1.1205   68-A'
  82   1.0000       0.053963         1.4684   69-A'
  83   1.0000       0.054076         1.4715   15-A"
  84   1.0000       0.059485         1.6187   16-A"
  85   1.0000       0.081722         2.2238   17-A"
  86   1.0000       0.103975         2.8293   18-A"
  87   0.0000       0.137753         3.7485   70-A'
  88   0.0000       0.187355         5.0982   71-A'
  89   0.0000       0.188099         5.1184   72-A'
  90   0.0000       0.202234         5.5031   73-A'
  91   0.0000       0.202678         5.5151   74-A'

MULLIKEN ATOMIC CHARGES AND SPIN POPULATIONS
--------------------------------------------
   0 Cu:    0.119799    0.369954
   1 S :   -0.408997    0.159736
   2 C :    0.032959   -0.006517
   3 S :   -0.397061    0.163700
   4 C :    0.033682   -0.006659
   5 S :   -0.404915    0.158647
   6 C :    0.032573   -0.006687
   7 S :   -0.398434    0.161410
   8 C :    0.028907   -0.006562
   9 C :   -0.094108   -0.000984
  10 C :   -0.086143   -0.001017
  11 C :   -0.129114   -0.000319
  12 H :    0.031037    0.003113
  13 C :   -0.133186   -0.000537
  14 H :    0.030431    0.002980
  15 H :    0.029251    0.001970
  16 H :    0.028047    0.002038
  17 C :   -0.088302   -0.001200
  18 C :   -0.092789   -0.001050
  19 C :   -0.132282   -0.000486
  20 H :    0.035676    0.002813
  21 C :   -0.131783   -0.000566
  22 H :    0.035235    0.002735
  23 H :    0.030236    0.001715
  24 H :    0.029280    0.001774
Sum of atomic charges         :   -2.0000000

LOEWDIN ATOMIC CHARGES AND SPIN POPULATIONS
-------------------------------------------
   0 Cu:   -0.754965    0.434463
   1 S :    0.038181    0.118435
   2 C :   -0.102101    0.007224
   3 S :    0.045610    0.120889
   4 C :   -0.114098    0.007881
   5 S :    0.038346    0.117282
   6 C :   -0.103375    0.007374
   7 S :    0.041597    0.118914
   8 C :   -0.115842    0.008057
   9 C :    0.305105    0.006872
  10 C :    0.303456    0.007098
  11 C :    0.308843    0.000769
  12 H :   -0.431750    0.007345
  13 C :    0.310629    0.000664
  14 H :   -0.429705    0.006990
  15 H :   -0.426274    0.000658
  16 H :   -0.425489    0.000672
  17 C :    0.303857    0.006251
  18 C :    0.304790    0.006226
  19 C :    0.310039    0.000515
  20 H :   -0.433806    0.007022
  21 C :    0.309805    0.000500
  22 H :   -0.432895    0.006822
  23 H :   -0.425368    0.000525
  24 H :   -0.424590    0.000551

  Mayer bond orders larger than 0.100000
B(  0-Cu,  1-S ) :   0.6773 B(  0-Cu,  3-S ) :   0.6696 B(  0-Cu,  5-S ) :   0.6782
B(  0-Cu,  7-S ) :   0.6742 B(  1-S ,  2-C ) :   1.2458 B(  2-C ,  6-C ) :   1.2316
B(  2-C , 17-C ) :   1.2967 B(  3-S ,  4-C ) :   1.2627 B(  4-C ,  8-C ) :   1.2285
B(  4-C , 10-C ) :   1.2890 B(  5-S ,  6-C ) :   1.2484 B(  6-C , 18-C ) :   1.2956
B(  7-S ,  8-C ) :   1.2578 B(  8-C ,  9-C ) :   1.2928 B(  9-C , 13-C ) :   1.3642
B(  9-C , 14-H ) :   0.9863 B( 10-C , 11-C ) :   1.3661 B( 10-C , 12-H ) :   0.9850
B( 11-C , 13-C ) :   1.3273 B( 11-C , 15-H ) :   0.9883 B( 13-C , 16-H ) :   0.9892
B( 17-C , 19-C ) :   1.3634 B( 17-C , 20-H ) :   0.9832 B( 18-C , 21-C ) :   1.3649
B( 18-C , 22-H ) :   0.9837 B( 19-C , 21-C ) :   1.3303 B( 19-C , 23-H ) :   0.9881
B( 21-C , 24-H ) :   0.9885

FINAL SINGLE POINT ENERGY     -3686.843951771915

DIPOLE MOMENT
-------------
                                X             Y             Z
Electronic contribution:     -0.08208      -0.01407      -0.00000
Nuclear contribution   :      0.08215       0.00263       0.00000
                        -----------------------------------------
Total Dipole Moment    :      0.00008      -0.01143      -0.00000
                        -----------------------------------------
Magnitude (a.u.)       :      0.01143
Magnitude (Debye)      :      0.02906

Rotational constants in cm-1:     0.033899     0.004925     0.004301
Rotational constants in MHz :  1016.271706   147.660813   128.928012

                             ****ORCA TERMINATED NORMALLY****
TOTAL RUN TIME: 0 days 5 hours 25 minutes 32 seconds 754 msec
