                         Program Version 5.0.4 -  RELEASE  -
|  1> ! RIJCOSX nofrozencore ReducedPop printbasis
|  2> ! M06L ano-rcc-dzp autoaux
|  3>
|  4> %maxcore 5000
|  5> %basis
|  6> PCDTrimBas overlap
|  7> PCDTrimAuxJ Coulomb
|  8> PCDTrimAuxJK Coulomb
|  9> PCDTrimAuxC Coulomb
| 10> PCDThresh -1
| 11> end
| 12>
| 13> %basis
| 14> newgto Cu "ano-rcc-tzp" end
| 15> newgto S "ano-rcc-tzp" end
| 16> end
| 17>
| 18> %pal
| 19> nprocs 12
| 20> end
| 21>
| 22> % sym SymThresh 1e-2 end
| 23> * xyz -2 2
| 24> Cu -0.002400982487320592 -0.0007760324813703627 0.00890087117553321
| 25> S 2.040116866863864 0.8234745028666952 -1.0294605344873693
| 26> C 2.9640912619386457 1.2440278258095523 0.38912771884758324
| 27> S -0.8224216034690232 -0.39176523673345665 -1.9530777628470455
| 28> C -2.4123020440396665 -1.0473278544700233 -1.6980847534482084
| 29> S 0.8280759857814896 0.3942411261165358 1.9578028361191993
| 30> C 2.416404659241699 1.0488615588913854 1.6911725786636742
| 31> S -2.047052564326588 -0.8263845546297786 1.0285839659265947
| 32> C -2.9628418088291877 -1.2437118691332667 -0.39721737590496065
| 33> C -4.2583684512674935 -1.781071504152605 -0.31500753360239375
| 34> C -3.1758346097675294 -1.3936408534412434 -2.8222685241603576
| 35> C -4.4545176235489246 -1.9233540703995484 -2.7149076154290297
| 36> H -2.728588204012379 -1.2321229226752677 -3.800666069066402
| 37> C -5.000942739890451 -2.1188377823916817 -1.4462750047261026
| 38> H -4.68719255978138 -1.9346704450950445 0.673219601199941
| 39> H -5.016652797148325 -2.1800292573576487 -3.610251344980645
| 40> H -6.000989046106128 -2.532356860521105 -1.3320585823194666
| 41> C 4.261477990862599 1.7821038264577154 0.3045296547061265
| 42> C 3.178121315568695 1.394394272174734 2.8143992844390793
| 43> C 5.002566078381096 2.1192457785212353 1.4356653263472325
| 44> H 4.688966490979049 1.9351349756033556 -0.6841594094026832
| 45> C 4.457335172844168 1.9242712949626648 2.7048580450367354
| 46> H 2.732021368977257 1.2333603074595945 3.7931010221254082
| 47> H 6.002723829253241 2.5328198490549916 1.3217889935229283
| 48> H 5.020864339304893 2.1814965644901374 3.5989998223973507
| 49> *
| 50>
| 51> % eprnmr
| 52> gtensor true
| 53> Nuclei = all H {aiso,adip,aorb,fgrad,rho}
| 54> Nuclei = all Cu {aiso,adip,aorb,fgrad,rho}
| 55> end
| 56>
| 57>                          ****END OF INPUT****

CARTESIAN COORDINATES (ANGSTROEM)
---------------------------------
  Cu     0.008891   -0.002558    0.000000
  S     -1.019071    2.204874    0.000000
  C      0.404801    3.212631    0.000000
  S     -1.957993   -0.900352    0.000000
  C     -1.711264   -2.621290    0.000000
  S      1.962749    0.906501    0.000000
  C      1.704372    2.625701    0.000000
  S      1.018158   -2.212391    0.000000
  C     -0.412886   -3.211317    0.000000
  C     -0.337449   -4.614247    0.000000
  C     -2.839800   -3.453824    0.000000
  C     -2.739116   -4.838387    0.000000
  H     -3.816151   -2.974118    0.000000
  C     -1.472961   -5.424113    0.000000
  H      0.648831   -5.073950    0.000000
  H     -3.637684   -5.451651    0.000000
  H     -1.363957   -6.506820    0.000000
  C      0.326985    4.617565    0.000000
  C      2.831940    3.456262    0.000000
  C      1.462356    5.425820    0.000000
  H     -0.659765    5.075819    0.000000
  C      2.729078    4.841389    0.000000
  H      3.808601    2.977799    0.000000
  H      1.353693    6.508649    0.000000
  H      3.626451    5.456158    0.000000

 Total Charge           Charge          ....   -2
 Multiplicity           Mult            ....    2
 Number of Electrons    NEL             ....  175
 Basis Dimension        Dim             ....  475

ORBITAL ENERGIES
----------------
                 SPIN UP ORBITALS
  NO   OCC          E(Eh)            E(eV)    Irrep
   0   1.0000    -318.182804     -8658.1943    1-A'
   1   1.0000     -88.013658     -2394.9734    2-A'
   2   1.0000     -88.013625     -2394.9725    3-A'
   3   1.0000     -88.012423     -2394.9398    4-A'
   4   1.0000     -88.012364     -2394.9382    5-A'
   5   1.0000     -38.028653     -1034.8123    6-A'
   6   1.0000     -33.532148      -912.4561    7-A'
   7   1.0000     -33.530181      -912.4026    8-A'
   8   1.0000     -33.517064      -912.0457    1-A"
   9   1.0000      -9.832908      -267.5670    9-A'
  10   1.0000      -9.832659      -267.5602   10-A'
  11   1.0000      -9.830585      -267.5038   11-A'
  12   1.0000      -9.830338      -267.4971   12-A'
  13   1.0000      -9.823535      -267.3120   13-A'
  14   1.0000      -9.823497      -267.3109   14-A'
  15   1.0000      -9.822649      -267.2879   15-A'
  16   1.0000      -9.822553      -267.2853   16-A'
  17   1.0000      -9.816906      -267.1316   17-A'
  18   1.0000      -9.816666      -267.1251   18-A'
  19   1.0000      -9.814894      -267.0768   19-A'
  20   1.0000      -9.814755      -267.0731   20-A'
  21   1.0000      -7.583195      -206.3492   21-A'
  22   1.0000      -7.583119      -206.3472   22-A'
  23   1.0000      -7.580900      -206.2868   23-A'
  24   1.0000      -7.580842      -206.2852   24-A'
  25   1.0000      -5.506347      -149.8353   25-A'
  26   1.0000      -5.506280      -149.8335   26-A'
  27   1.0000      -5.504130      -149.7750   27-A'
  28   1.0000      -5.504070      -149.7734   28-A'
  29   1.0000      -5.500748      -149.6830   29-A'
  30   1.0000      -5.500678      -149.6810   30-A'
  31   1.0000      -5.499242      -149.6420    2-A"
  32   1.0000      -5.499173      -149.6401    3-A"
  33   1.0000      -5.499079      -149.6376   31-A'
  34   1.0000      -5.499026      -149.6361   32-A'
  35   1.0000      -5.496963      -149.5800    4-A"
  36   1.0000      -5.496913      -149.5786    5-A"
  37   1.0000      -4.025487      -109.5391   33-A'
  38   1.0000      -2.549125       -69.3652   34-A'
  39   1.0000      -2.543178       -69.2034   35-A'
  40   1.0000      -2.517727       -68.5108    6-A"
  41   1.0000      -0.587671       -15.9913   36-A'
  42   1.0000      -0.587483       -15.9862   37-A'
  43   1.0000      -0.503473       -13.7002   38-A'
  44   1.0000      -0.502073       -13.6621   39-A'
  45   1.0000      -0.488957       -13.3052   40-A'
  46   1.0000      -0.488604       -13.2956   41-A'
  47   1.0000      -0.409805       -11.1514   42-A'
  48   1.0000      -0.407191       -11.0802   43-A'
  49   1.0000      -0.387475       -10.5437   44-A'
  50   1.0000      -0.379672       -10.3314   45-A'
  51   1.0000      -0.321000        -8.7349   46-A'
  52   1.0000      -0.317952        -8.6519   47-A'
  53   1.0000      -0.299475        -8.1491   48-A'
  54   1.0000      -0.295754        -8.0479   49-A'
  55   1.0000      -0.232167        -6.3176   50-A'
  56   1.0000      -0.226020        -6.1503   51-A'
  57   1.0000      -0.188840        -5.1386   52-A'
  58   1.0000      -0.187712        -5.1079   53-A'
  59   1.0000      -0.176925        -4.8144   54-A'
  60   1.0000      -0.173706        -4.7268   55-A'
  61   1.0000      -0.145888        -3.9698   56-A'
  62   1.0000      -0.143486        -3.9045   57-A'
  63   1.0000      -0.131553        -3.5797   58-A'
  64   1.0000      -0.115573        -3.1449    7-A"
  65   1.0000      -0.115436        -3.1412    8-A"
  66   1.0000      -0.112134        -3.0513   59-A'
  67   1.0000      -0.087229        -2.3736   60-A'
  68   1.0000      -0.070000        -1.9048   61-A'
  69   1.0000      -0.065466        -1.7814   62-A'
  70   1.0000      -0.060120        -1.6359   63-A'
  71   1.0000      -0.040350        -1.0980    9-A"
  72   1.0000      -0.037537        -1.0214   64-A'
  73   1.0000      -0.036626        -0.9966   10-A"
  74   1.0000      -0.027089        -0.7371   11-A"
  75   1.0000      -0.025509        -0.6941   65-A'
  76   1.0000      -0.018478        -0.5028   12-A"
  77   1.0000      -0.004464        -0.1215   13-A"
  78   1.0000      -0.000835        -0.0227   66-A'
  79   1.0000       0.002170         0.0590   14-A"
  80   1.0000       0.018805         0.5117   67-A'
  81   1.0000       0.020696         0.5632   68-A'
  82   1.0000       0.034078         0.9273   69-A'
  83   1.0000       0.050253         1.3675   15-A"
  84   1.0000       0.053585         1.4581   16-A"
  85   1.0000       0.063045         1.7155   17-A"
  86   1.0000       0.090394         2.4597   18-A"
  87   1.0000       0.106646         2.9020   70-A'
  88   0.0000       0.182067         4.9543   71-A'
  89   0.0000       0.182180         4.9574   72-A'
  90   0.0000       0.197378         5.3709   73-A'
  91   0.0000       0.197546         5.3755   74-A'
  92   0.0000       0.201579         5.4852   19-A"

                 SPIN DOWN ORBITALS
  NO   OCC          E(Eh)            E(eV)    Irrep
   0   1.0000    -318.182598     -8658.1887    1-A'
   1   1.0000     -88.012850     -2394.9514    2-A'
   2   1.0000     -88.012815     -2394.9505    3-A'
   3   1.0000     -88.011100     -2394.9038    4-A'
   4   1.0000     -88.011033     -2394.9020    5-A'
   5   1.0000     -38.013271     -1034.3937    6-A'
   6   1.0000     -33.517427      -912.0556    7-A'
   7   1.0000     -33.515534      -912.0040    8-A'
   8   1.0000     -33.512845      -911.9309    1-A"
   9   1.0000      -9.833082      -267.5718    9-A'
  10   1.0000      -9.832830      -267.5649   10-A'
  11   1.0000      -9.830646      -267.5055   11-A'
  12   1.0000      -9.830396      -267.4987   12-A'
  13   1.0000      -9.823511      -267.3113   13-A'
  14   1.0000      -9.823473      -267.3103   14-A'
  15   1.0000      -9.822630      -267.2874   15-A'
  16   1.0000      -9.822534      -267.2847   16-A'
  17   1.0000      -9.816825      -267.1294   17-A'
  18   1.0000      -9.816586      -267.1229   18-A'
  19   1.0000      -9.814858      -267.0759   19-A'
  20   1.0000      -9.814719      -267.0721   20-A'
  21   1.0000      -7.582638      -206.3341   21-A'
  22   1.0000      -7.582558      -206.3319   22-A'
  23   1.0000      -7.580001      -206.2623   23-A'
  24   1.0000      -7.579936      -206.2605   24-A'
  25   1.0000      -5.505624      -149.8157   25-A'
  26   1.0000      -5.505553      -149.8137   26-A'
  27   1.0000      -5.502999      -149.7442   27-A'
  28   1.0000      -5.502931      -149.7424   28-A'
  29   1.0000      -5.499072      -149.6373   29-A'
  30   1.0000      -5.498989      -149.6351   30-A'
  31   1.0000      -5.498623      -149.6251    2-A"
  32   1.0000      -5.498550      -149.6231    3-A"
  33   1.0000      -5.496293      -149.5617   31-A'
  34   1.0000      -5.496219      -149.5597   32-A'
  35   1.0000      -5.495962      -149.5527    4-A"
  36   1.0000      -5.495904      -149.5511    5-A"
  37   1.0000      -3.992888      -108.6520   33-A'
  38   1.0000      -2.506742       -68.2119   34-A'
  39   1.0000      -2.506338       -68.2009    6-A"
  40   1.0000      -2.504279       -68.1449   35-A'
  41   1.0000      -0.587302       -15.9813   36-A'
  42   1.0000      -0.587126       -15.9765   37-A'
  43   1.0000      -0.502174       -13.6648   38-A'
  44   1.0000      -0.500861       -13.6291   39-A'
  45   1.0000      -0.487866       -13.2755   40-A'
  46   1.0000      -0.487544       -13.2668   41-A'
  47   1.0000      -0.405957       -11.0467   42-A'
  48   1.0000      -0.403348       -10.9757   43-A'
  49   1.0000      -0.384086       -10.4515   44-A'
  50   1.0000      -0.376493       -10.2449   45-A'
  51   1.0000      -0.319805        -8.7023   46-A'
  52   1.0000      -0.316398        -8.6096   47-A'
  53   1.0000      -0.297694        -8.1007   48-A'
  54   1.0000      -0.293456        -7.9853   49-A'
  55   1.0000      -0.231552        -6.3008   50-A'
  56   1.0000      -0.225312        -6.1311   51-A'
  57   1.0000      -0.187818        -5.1108   52-A'
  58   1.0000      -0.186809        -5.0833   53-A'
  59   1.0000      -0.176390        -4.7998   54-A'
  60   1.0000      -0.172768        -4.7013   55-A'
  61   1.0000      -0.145192        -3.9509   56-A'
  62   1.0000      -0.141760        -3.8575   57-A'
  63   1.0000      -0.130133        -3.5411   58-A'
  64   1.0000      -0.115405        -3.1403    7-A"
  65   1.0000      -0.115245        -3.1360    8-A"
  66   1.0000      -0.111215        -3.0263   59-A'
  67   1.0000      -0.085365        -2.3229   60-A'
  68   1.0000      -0.068541        -1.8651   61-A'
  69   1.0000      -0.058328        -1.5872   62-A'
  70   1.0000      -0.050004        -1.3607   63-A'
  71   1.0000      -0.037547        -1.0217    9-A"
  72   1.0000      -0.035748        -0.9728   10-A"
  73   1.0000      -0.027292        -0.7427   64-A'
  74   1.0000      -0.023645        -0.6434   11-A"
  75   1.0000      -0.017654        -0.4804   12-A"
  76   1.0000      -0.002990        -0.0813   65-A'
  77   1.0000       0.003206         0.0872   13-A"
  78   1.0000       0.009573         0.2605   66-A'
  79   1.0000       0.014533         0.3955   14-A"
  80   1.0000       0.026989         0.7344   67-A'
  81   1.0000       0.033782         0.9193   68-A'
  82   1.0000       0.042820         1.1652   69-A'
  83   1.0000       0.052754         1.4355   15-A"
  84   1.0000       0.059141         1.6093   16-A"
  85   1.0000       0.065272         1.7761   17-A"
  86   1.0000       0.094595         2.5741   18-A"
  87   0.0000       0.138920         3.7802   70-A'
  88   0.0000       0.183281         4.9873   71-A'
  89   0.0000       0.183372         4.9898   72-A'
  90   0.0000       0.199396         5.4258   73-A'
  91   0.0000       0.199600         5.4314   74-A'

MULLIKEN ATOMIC CHARGES AND SPIN POPULATIONS
--------------------------------------------
   0 Cu:    0.131654    0.373916
   1 S :   -0.448435    0.194692
   2 C :    0.013988   -0.010912
   3 S :   -0.391176    0.133073
   4 C :    0.027156   -0.004328
   5 S :   -0.391011    0.132551
   6 C :    0.028695   -0.004235
   7 S :   -0.448717    0.193437
   8 C :    0.015505   -0.010786
   9 C :   -0.096110   -0.001398
  10 C :   -0.083189   -0.001868
  11 C :   -0.138400   -0.001342
  12 H :    0.065690    0.002252
  13 C :   -0.137477   -0.000580
  14 H :    0.061486    0.001971
  15 H :    0.028133    0.001156
  16 H :    0.030981    0.001083
  17 C :   -0.098572   -0.001394
  18 C :   -0.081212   -0.001883
  19 C :   -0.135897   -0.000569
  20 H :    0.061164    0.001983
  21 C :   -0.139476   -0.001360
  22 H :    0.065795    0.002290
  23 H :    0.031036    0.001101
  24 H :    0.028390    0.001149
Sum of atomic charges         :   -2.0000000

LOEWDIN ATOMIC CHARGES AND SPIN POPULATIONS
-------------------------------------------
   0 Cu:   -0.916475    0.434140
   1 S :   -0.019701    0.166777
   2 C :   -0.043079    0.006033
   3 S :    0.038904    0.086507
   4 C :   -0.024151    0.004331
   5 S :    0.042042    0.085632
   6 C :   -0.024302    0.004306
   7 S :   -0.017163    0.165143
   8 C :   -0.043397    0.005927
   9 C :    0.304226    0.004572
  10 C :    0.306034    0.003150
  11 C :    0.310138   -0.000315
  12 H :   -0.446535    0.005246
  13 C :    0.310985   -0.000069
  14 H :   -0.445560    0.007602
  15 H :   -0.416551    0.000118
  16 H :   -0.419182    0.000273
  17 C :    0.304679    0.004559
  18 C :    0.306036    0.003198
  19 C :    0.310520   -0.000071
  20 H :   -0.444938    0.007557
  21 C :    0.310617   -0.000316
  22 H :   -0.447160    0.005307
  23 H :   -0.419096    0.000288
  24 H :   -0.416892    0.000106

  Mayer bond orders larger than 0.100000
B(  0-Cu,  1-S ) :   0.5917 B(  0-Cu,  3-S ) :   0.8430 B(  0-Cu,  5-S ) :   0.8520
B(  0-Cu,  7-S ) :   0.5972 B(  1-S ,  2-C ) :   1.1904 B(  2-C ,  6-C ) :   1.2444
B(  2-C , 17-C ) :   1.3172 B(  3-S ,  4-C ) :   1.1773 B(  4-C ,  8-C ) :   1.2441
B(  4-C , 10-C ) :   1.3169 B(  5-S ,  6-C ) :   1.1759 B(  6-C , 18-C ) :   1.3174
B(  7-S ,  8-C ) :   1.1890 B(  8-C ,  9-C ) :   1.3181 B(  9-C , 13-C ) :   1.3620
B(  9-C , 14-H ) :   0.9730 B( 10-C , 11-C ) :   1.3615 B( 10-C , 12-H ) :   0.9678
B( 11-C , 13-C ) :   1.3386 B( 11-C , 15-H ) :   0.9896 B( 13-C , 16-H ) :   0.9887
B( 17-C , 19-C ) :   1.3631 B( 17-C , 20-H ) :   0.9734 B( 18-C , 21-C ) :   1.3608
B( 18-C , 22-H ) :   0.9675 B( 19-C , 21-C ) :   1.3385 B( 19-C , 23-H ) :   0.9885
B( 21-C , 24-H ) :   0.9895

FINAL SINGLE POINT ENERGY     -3686.921588803668

DIPOLE MOMENT
-------------
                                X             Y             Z
Electronic contribution:      0.09028      -0.02210      -0.00000
Nuclear contribution   :     -0.08375       0.02446       0.00000
                        -----------------------------------------
Total Dipole Moment    :      0.00652       0.00236      -0.00000
                        -----------------------------------------
Magnitude (a.u.)       :      0.00694
Magnitude (Debye)      :      0.01764

Rotational constants in cm-1:     0.033017     0.004921     0.004283
Rotational constants in MHz :   989.827022   147.523205   128.388293

                             ****ORCA TERMINATED NORMALLY****
TOTAL RUN TIME: 0 days 5 hours 11 minutes 28 seconds 465 msec
