                         Program Version 5.0.4 -  RELEASE  -
|  1> ! RIJCOSX nofrozencore ReducedPop printbasis
|  2> ! M06L ano-rcc-dzp autoaux
|  3>
|  4> %maxcore 5000
|  5> %basis
|  6> PCDTrimBas overlap
|  7> PCDTrimAuxJ Coulomb
|  8> PCDTrimAuxJK Coulomb
|  9> PCDTrimAuxC Coulomb
| 10> PCDThresh -1
| 11> end
| 12>
| 13> %basis
| 14> newgto Cu "ano-rcc-tzp" end
| 15> newgto S "ano-rcc-tzp" end
| 16> end
| 17>
| 18> %pal
| 19> nprocs 12
| 20> end
| 21>
| 22> % sym SymThresh 1e-2 end
| 23> * xyz -2 2
| 24> Cu 2.616989260881829e-07 5.67200855238699e-07 -1.2687777038948864e-06
| 25> S -0.4345642248419856 -0.899655565915747 2.0913818035177845
| 26> C -0.8065168052915621 0.4777774391389598 3.093506591602014
| 27> S 0.40992173899886314 -2.100135251571048 -0.8908451247701589
| 28> C 0.7950943377744468 -1.798628716837367 -2.562574517294664
| 29> S -0.4099238020685355 2.1001344274752904 0.8908537887536371
| 30> C -0.7949572942353755 1.7983211924394729 2.562131914975309
| 31> S 0.43456749721064536 0.899647157104755 -2.091391981115785
| 32> C 0.8063748259492017 -0.4776638922841899 -3.0929728117053203
| 33> C 1.1246808594126245 -0.32219319296705146 -4.440109929587395
| 34> C 1.1034425424800034 -2.880661359494163 -3.4152971360459263
| 35> C 1.4183554455800533 -2.673369198268238 -4.767695854157337
| 36> H 1.09478360792577 -3.6669769395097784 -3.09169348554567
| 37> C 1.4252702222070095 -1.3748821271321208 -5.272152569587458
| 38> H 1.131633148546771 0.9069595592037801 -4.919279053763469
| 39> H 1.630318090440279 -3.4506465375490665 -5.341586751539734
| 40> H 1.6880485643658332 -1.1844455166086296 -6.407065625893352
| 41> C -1.124653653277266 0.33388449836472256 4.435709976982584
| 42> C -1.103281198913398 2.8920981114379485 3.410446923861925
| 43> C -1.4239964928502598 1.3750832477610098 5.26691635635475
| 44> H -1.1324801690568616 -1.0400993826524232 4.971562691560773
| 45> C -1.419553531894954 2.6769611469165806 4.771233761885036
| 46> H -1.0961082040876424 3.5353068521693225 3.1453734708173204
| 47> H -1.7014085074794447 1.175478801901033 6.464503417210164
| 48> H -1.617927076258599 3.4062422915746966 5.307658498342773
| 49> *
| 50>
| 51> % eprnmr
| 52> gtensor true
| 53> Nuclei = all H {aiso,adip,aorb,fgrad,rho}
| 54> Nuclei = all Cu {aiso,adip,aorb,fgrad,rho}
| 55> end
| 56>
| 57>                          ****END OF INPUT****

CARTESIAN COORDINATES (ANGSTROEM)
---------------------------------
  Cu     0.000000   -0.000001    0.000000
  S     -0.880019    2.144218    0.000000
  C      0.514113    3.191271    0.000000
  S     -2.118510   -0.940280    0.000000
  C     -1.834383   -2.658772    0.000000
  S      2.118509    0.940289    0.000000
  C      1.834069    2.658313    0.000000
  S      0.880010   -2.144228    0.000000
  C     -0.513993   -3.190720    0.000000
  C     -0.372881   -4.576489    0.000000
  C     -2.930262   -3.548748    0.000000
  C     -2.737178   -4.939374    0.000000
  H     -3.716148   -3.223986    0.000000
  C     -1.439068   -5.444848    0.000000
  H      0.855897   -5.056670    0.000000
  H     -3.523972   -5.538869    0.000000
  H     -1.260488   -6.611662    0.000000
  C      0.384570    4.572084    0.000000
  C      2.941691    3.543877    0.000000
  C      1.439211    5.439458    0.000000
  H     -0.988992    5.109075    0.000000
  C      2.740823    4.943057    0.000000
  H      3.584544    3.277845    0.000000
  H      1.252123    6.670722    0.000000
  H      3.479011    5.503444    0.000000

 Total Charge           Charge          ....   -2
 Multiplicity           Mult            ....    2
 Number of Electrons    NEL             ....  175
 Basis Dimension        Dim             ....  475

ORBITAL ENERGIES
----------------
                 SPIN UP ORBITALS
  NO   OCC          E(Eh)            E(eV)    Irrep
   0   1.0000    -318.182771     -8658.1934    1-A'
   1   1.0000     -88.016517     -2395.0512    2-A'
   2   1.0000     -88.016070     -2395.0390    3-A'
   3   1.0000     -88.015752     -2395.0304    4-A'
   4   1.0000     -88.015525     -2395.0242    5-A'
   5   1.0000     -38.027982     -1034.7940    6-A'
   6   1.0000     -33.531122      -912.4282    7-A'
   7   1.0000     -33.530278      -912.4052    8-A'
   8   1.0000     -33.516494      -912.0302    1-A"
   9   1.0000      -9.847143      -267.9544    9-A'
  10   1.0000      -9.840374      -267.7702   10-A'
  11   1.0000      -9.836942      -267.6768   11-A'
  12   1.0000      -9.836442      -267.6632   12-A'
  13   1.0000      -9.835562      -267.6392   13-A'
  14   1.0000      -9.834461      -267.6093   14-A'
  15   1.0000      -9.833926      -267.5947   15-A'
  16   1.0000      -9.833447      -267.5817   16-A'
  17   1.0000      -9.816275      -267.1144   17-A'
  18   1.0000      -9.812614      -267.0148   18-A'
  19   1.0000      -9.796857      -266.5860   19-A'
  20   1.0000      -9.792355      -266.4635   20-A'
  21   1.0000      -7.585055      -206.3998   21-A'
  22   1.0000      -7.584848      -206.3942   22-A'
  23   1.0000      -7.584385      -206.3816   23-A'
  24   1.0000      -7.584290      -206.3790   24-A'
  25   1.0000      -5.508422      -149.8918   25-A'
  26   1.0000      -5.508008      -149.8805   26-A'
  27   1.0000      -5.507668      -149.8713   27-A'
  28   1.0000      -5.507454      -149.8654   28-A'
  29   1.0000      -5.502908      -149.7417   29-A'
  30   1.0000      -5.502749      -149.7374   30-A'
  31   1.0000      -5.502269      -149.7243   31-A'
  32   1.0000      -5.502209      -149.7227   32-A'
  33   1.0000      -5.501071      -149.6917    2-A"
  34   1.0000      -5.500953      -149.6885    3-A"
  35   1.0000      -5.500424      -149.6741    4-A"
  36   1.0000      -5.500381      -149.6730    5-A"
  37   1.0000      -4.025585      -109.5417   33-A'
  38   1.0000      -2.547028       -69.3082   34-A'
  39   1.0000      -2.545486       -69.2662   35-A'
  40   1.0000      -2.518056       -68.5198    6-A"
  41   1.0000      -0.595775       -16.2119   36-A'
  42   1.0000      -0.592201       -16.1146   37-A'
  43   1.0000      -0.510585       -13.8937   38-A'
  44   1.0000      -0.506424       -13.7805   39-A'
  45   1.0000      -0.504421       -13.7260   40-A'
  46   1.0000      -0.496191       -13.5020   41-A'
  47   1.0000      -0.415512       -11.3067   42-A'
  48   1.0000      -0.411125       -11.1873   43-A'
  49   1.0000      -0.397128       -10.8064   44-A'
  50   1.0000      -0.388219       -10.5640   45-A'
  51   1.0000      -0.345142        -9.3918   46-A'
  52   1.0000      -0.332282        -9.0418   47-A'
  53   1.0000      -0.300802        -8.1852   48-A'
  54   1.0000      -0.297265        -8.0890   49-A'
  55   1.0000      -0.238423        -6.4878   50-A'
  56   1.0000      -0.232353        -6.3227   51-A'
  57   1.0000      -0.193608        -5.2683   52-A'
  58   1.0000      -0.191459        -5.2099   53-A'
  59   1.0000      -0.187493        -5.1019   54-A'
  60   1.0000      -0.181000        -4.9253   55-A'
  61   1.0000      -0.144952        -3.9443   56-A'
  62   1.0000      -0.141428        -3.8485   57-A'
  63   1.0000      -0.129137        -3.5140   58-A'
  64   1.0000      -0.119753        -3.2586    7-A"
  65   1.0000      -0.118444        -3.2230    8-A"
  66   1.0000      -0.105966        -2.8835   59-A'
  67   1.0000      -0.077730        -2.1151   60-A'
  68   1.0000      -0.072103        -1.9620   61-A'
  69   1.0000      -0.066896        -1.8203   62-A'
  70   1.0000      -0.058227        -1.5844   63-A'
  71   1.0000      -0.040853        -1.1117    9-A"
  72   1.0000      -0.039084        -1.0635   10-A"
  73   1.0000      -0.032617        -0.8875   64-A'
  74   1.0000      -0.030584        -0.8322   65-A'
  75   1.0000      -0.027827        -0.7572   11-A"
  76   1.0000      -0.020979        -0.5709   12-A"
  77   1.0000      -0.004399        -0.1197   13-A"
  78   1.0000      -0.002087        -0.0568   66-A'
  79   1.0000      -0.000109        -0.0030   14-A"
  80   1.0000       0.016978         0.4620   67-A'
  81   1.0000       0.017568         0.4780   68-A'
  82   1.0000       0.033669         0.9162   69-A'
  83   1.0000       0.048544         1.3209   15-A"
  84   1.0000       0.050810         1.3826   16-A"
  85   1.0000       0.060985         1.6595   17-A"
  86   1.0000       0.086055         2.3417   18-A"
  87   1.0000       0.103845         2.8258   70-A'
  88   0.0000       0.174785         4.7561   71-A'
  89   0.0000       0.179478         4.8839   72-A'
  90   0.0000       0.193304         5.2601   73-A'
  91   0.0000       0.195598         5.3225   74-A'
  92   0.0000       0.199021         5.4156   19-A"

                 SPIN DOWN ORBITALS
  NO   OCC          E(Eh)            E(eV)    Irrep
   0   1.0000    -318.182597     -8658.1886    1-A'
   1   1.0000     -88.015441     -2395.0219    2-A'
   2   1.0000     -88.015004     -2395.0100    3-A'
   3   1.0000     -88.014680     -2395.0012    4-A'
   4   1.0000     -88.014453     -2394.9950    5-A'
   5   1.0000     -38.012110     -1034.3621    6-A'
   6   1.0000     -33.515959      -912.0156    7-A'
   7   1.0000     -33.515147      -911.9935    8-A'
   8   1.0000     -33.512169      -911.9125    1-A"
   9   1.0000      -9.847092      -267.9530    9-A'
  10   1.0000      -9.840351      -267.7696   10-A'
  11   1.0000      -9.836885      -267.6752   11-A'
  12   1.0000      -9.836556      -267.6663   12-A'
  13   1.0000      -9.835675      -267.6423   13-A'
  14   1.0000      -9.834576      -267.6124   14-A'
  15   1.0000      -9.834038      -267.5978   15-A'
  16   1.0000      -9.833424      -267.5811   16-A'
  17   1.0000      -9.816255      -267.1139   17-A'
  18   1.0000      -9.812598      -267.0144   18-A'
  19   1.0000      -9.796801      -266.5845   19-A'
  20   1.0000      -9.792299      -266.4620   20-A'
  21   1.0000      -7.584316      -206.3797   21-A'
  22   1.0000      -7.584115      -206.3743   22-A'
  23   1.0000      -7.583649      -206.3616   23-A'
  24   1.0000      -7.583553      -206.3590   24-A'
  25   1.0000      -5.507497      -149.8666   25-A'
  26   1.0000      -5.507077      -149.8552   26-A'
  27   1.0000      -5.506741      -149.8460   27-A'
  28   1.0000      -5.506517      -149.8399   28-A'
  29   1.0000      -5.500630      -149.6798   29-A'
  30   1.0000      -5.500511      -149.6765   30-A'
  31   1.0000      -5.500253      -149.6695    2-A"
  32   1.0000      -5.500137      -149.6663    3-A"
  33   1.0000      -5.500008      -149.6628   31-A'
  34   1.0000      -5.499958      -149.6615   32-A'
  35   1.0000      -5.499609      -149.6520    4-A"
  36   1.0000      -5.499562      -149.6507    5-A"
  37   1.0000      -3.991856      -108.6239   33-A'
  38   1.0000      -2.506344       -68.2011    6-A"
  39   1.0000      -2.504976       -68.1638   34-A'
  40   1.0000      -2.503406       -68.1211   35-A'
  41   1.0000      -0.595437       -16.2027   36-A'
  42   1.0000      -0.591846       -16.1050   37-A'
  43   1.0000      -0.509555       -13.8657   38-A'
  44   1.0000      -0.505185       -13.7468   39-A'
  45   1.0000      -0.503458       -13.6998   40-A'
  46   1.0000      -0.495257       -13.4766   41-A'
  47   1.0000      -0.411306       -11.1922   42-A'
  48   1.0000      -0.406975       -11.0744   43-A'
  49   1.0000      -0.394677       -10.7397   44-A'
  50   1.0000      -0.385436       -10.4883   45-A'
  51   1.0000      -0.343137        -9.3372   46-A'
  52   1.0000      -0.330606        -8.9962   47-A'
  53   1.0000      -0.298989        -8.1359   48-A'
  54   1.0000      -0.295066        -8.0292   49-A'
  55   1.0000      -0.237776        -6.4702   50-A'
  56   1.0000      -0.231585        -6.3017   51-A'
  57   1.0000      -0.192714        -5.2440   52-A'
  58   1.0000      -0.190537        -5.1848   53-A'
  59   1.0000      -0.186645        -5.0789   54-A'
  60   1.0000      -0.180136        -4.9017   55-A'
  61   1.0000      -0.144227        -3.9246   56-A'
  62   1.0000      -0.140041        -3.8107   57-A'
  63   1.0000      -0.127678        -3.4743   58-A'
  64   1.0000      -0.119584        -3.2540    7-A"
  65   1.0000      -0.118263        -3.2181    8-A"
  66   1.0000      -0.104794        -2.8516   59-A'
  67   1.0000      -0.076378        -2.0783   60-A'
  68   1.0000      -0.070607        -1.9213   61-A'
  69   1.0000      -0.056921        -1.5489   62-A'
  70   1.0000      -0.052376        -1.4252   63-A'
  71   1.0000      -0.039072        -1.0632    9-A"
  72   1.0000      -0.037992        -1.0338   10-A"
  73   1.0000      -0.024794        -0.6747   11-A"
  74   1.0000      -0.023773        -0.6469   64-A'
  75   1.0000      -0.020185        -0.5493   12-A"
  76   1.0000      -0.003753        -0.1021   65-A'
  77   1.0000       0.005313         0.1446   13-A"
  78   1.0000       0.008711         0.2370   66-A'
  79   1.0000       0.012195         0.3318   14-A"
  80   1.0000       0.024352         0.6626   67-A'
  81   1.0000       0.032780         0.8920   68-A'
  82   1.0000       0.041945         1.1414   69-A'
  83   1.0000       0.051418         1.3991   15-A"
  84   1.0000       0.056419         1.5352   16-A"
  85   1.0000       0.062843         1.7101   17-A"
  86   1.0000       0.090238         2.4555   18-A"
  87   0.0000       0.136829         3.7233   70-A'
  88   0.0000       0.175873         4.7857   71-A'
  89   0.0000       0.180635         4.9153   72-A'
  90   0.0000       0.193947         5.2776   73-A'
  91   0.0000       0.197004         5.3608   74-A'

MULLIKEN ATOMIC CHARGES AND SPIN POPULATIONS
--------------------------------------------
   0 Cu:    0.140701    0.375504
   1 S :   -0.399504    0.162919
   2 C :    0.038961   -0.007080
   3 S :   -0.435730    0.163281
   4 C :   -0.011382   -0.007529
   5 S :   -0.438494    0.162111
   6 C :   -0.019974   -0.007484
   7 S :   -0.409676    0.162992
   8 C :    0.037760   -0.007346
   9 C :   -0.017376   -0.000562
  10 C :   -0.372420   -0.002435
  11 C :   -0.244853   -0.000700
  12 H :    0.442801    0.002666
  13 C :   -0.091147   -0.001056
  14 H :   -0.072734    0.001309
  15 H :    0.153954    0.000625
  16 H :   -0.047804    0.001442
  17 C :   -0.009309   -0.000590
  18 C :   -0.842519   -0.002043
  19 C :   -0.084616   -0.001112
  20 H :   -0.109438    0.001605
  21 C :   -0.321475   -0.000681
  22 H :    0.937086    0.002243
  23 H :   -0.082931    0.001617
  24 H :    0.260119    0.000305
Sum of atomic charges         :   -2.0000000

LOEWDIN ATOMIC CHARGES AND SPIN POPULATIONS
-------------------------------------------
   0 Cu:   -0.892987    0.442090
   1 S :   -0.011263    0.124205
   2 C :   -0.079540    0.005361
   3 S :    0.023826    0.124693
   4 C :    0.007467    0.005255
   5 S :    0.031156    0.124152
   6 C :    0.045355    0.005337
   7 S :   -0.003782    0.124009
   8 C :   -0.067526    0.005222
   9 C :    0.201783    0.003702
  10 C :    0.490172    0.004046
  11 C :    0.402591   -0.000162
  12 H :   -0.732214    0.005784
  13 C :    0.253888   -0.000112
  14 H :   -0.272906    0.006434
  15 H :   -0.513350    0.000113
  16 H :   -0.341363    0.000312
  17 C :    0.162940    0.003416
  18 C :    0.653523    0.004085
  19 C :    0.229027   -0.000101
  20 H :   -0.205196    0.006570
  21 C :    0.476342   -0.000227
  22 H :   -0.977091    0.005335
  23 H :   -0.296567    0.000444
  24 H :   -0.584285    0.000039

  Mayer bond orders larger than 0.100000
B(  0-Cu,  1-S ) :   0.7037 B(  0-Cu,  3-S ) :   0.7012 B(  0-Cu,  5-S ) :   0.6992
B(  0-Cu,  7-S ) :   0.7036 B(  1-S ,  2-C ) :   1.1821 B(  2-C ,  6-C ) :   1.2366
B(  2-C , 17-C ) :   1.3289 B(  3-S ,  4-C ) :   1.1927 B(  4-C ,  8-C ) :   1.2408
B(  4-C , 10-C ) :   1.3697 B(  5-S ,  6-C ) :   1.1970 B(  6-C , 18-C ) :   1.4155
B(  7-S ,  8-C ) :   1.1816 B(  8-C ,  9-C ) :   1.3197 B(  9-C , 13-C ) :   1.3587
B(  9-C , 14-H ) :   0.9907 B( 10-C , 11-C ) :   1.4325 B( 10-C , 12-H ) :   0.6379
B( 11-C , 13-C ) :   1.3471 B( 11-C , 15-H ) :   0.9167 B( 13-C , 16-H ) :   1.0122
B( 17-C , 19-C ) :   1.3696 B( 17-C , 20-H ) :   0.9623 B( 18-C , 21-C ) :   1.4975
B( 18-C , 22-H ) :  -0.1679 B( 19-C , 21-C ) :   1.3614 B( 19-C , 23-H ) :   1.0123
B( 21-C , 24-H ) :   0.8287

FINAL SINGLE POINT ENERGY     -3686.527522576083

DIPOLE MOMENT
-------------
                                X             Y             Z
Electronic contribution:      0.42139      -0.24036       0.00000
Nuclear contribution   :     -0.29836       0.12187       0.00000
                        -----------------------------------------
Total Dipole Moment    :      0.12303      -0.11848       0.00000
                        -----------------------------------------
Magnitude (a.u.)       :      0.17081
Magnitude (Debye)      :      0.43415

Rotational constants in cm-1:     0.033397     0.004804     0.004200
Rotational constants in MHz :  1001.203810   144.016576   125.905849

                             ****ORCA TERMINATED NORMALLY****
TOTAL RUN TIME: 0 days 6 hours 58 minutes 40 seconds 966 msec
