                         Program Version 5.0.4 -  RELEASE  -
|  1> ! RIJCOSX nofrozencore ReducedPop printbasis
|  2> ! M06L ano-rcc-dzp autoaux
|  3>
|  4> %maxcore 5000
|  5> %basis
|  6> PCDTrimBas overlap
|  7> PCDTrimAuxJ Coulomb
|  8> PCDTrimAuxJK Coulomb
|  9> PCDTrimAuxC Coulomb
| 10> PCDThresh -1
| 11> end
| 12>
| 13> %basis
| 14> newgto Cu "ano-rcc-tzp" end
| 15> newgto S "ano-rcc-tzp" end
| 16> end
| 17>
| 18> %pal
| 19> nprocs 12
| 20> end
| 21>
| 22> % sym SymThresh 1e-2 end
| 23> * xyz -2 2
| 24> Cu 0.0003540571389078035 -4.091745936003174e-05 -5.8679672016299594e-05
| 25> S -2.0906628177846254 -0.9377954381746961 -0.34140816176767047
| 26> C -3.236837333623701 0.13539356238007055 0.39724470434084264
| 27> S 1.0388436042817715 -1.7458181237949888 -1.1204183886146297
| 28> C 2.741785609697157 -1.260896836452145 -1.0050305061850429
| 29> S -1.0371208483169119 1.7434372159319453 1.1188602979134061
| 30> C -2.7388339503473444 1.404131029863388 1.0882833876121336
| 31> S 2.093512477795391 0.9391741109211252 0.3419320856946857
| 32> C 3.1069689716827504 -0.2519885771126898 -0.4524803724211193
| 33> C 4.643694215554867 0.13719892683799753 -0.37658648782021453
| 34> C 3.630899965577551 -2.2765179662039565 -1.684829750499897
| 35> C 5.183851165769324 -1.7701242049717913 -1.5421693474965725
| 36> H 3.2282772212968642 -3.171140227876231 -2.167039788361276
| 37> C 5.459413043661881 -0.9512538642594679 -1.0916487961184906
| 38> H 4.823195428300936 1.0859595160925501 0.15913969949383178
| 39> H 5.4748222402779865 -2.7630721721819897 -2.149929403648184
| 40> H 6.426678385079105 -0.3706542062771915 -0.8481170253043233
| 41> C -4.559145717378359 -0.04689755305211524 0.4209423180737377
| 42> C -3.682633585841442 2.1707322393377977 1.6282158281327803
| 43> C -5.504393533084688 0.6857709030487115 0.9412254584908047
| 44> H -4.955210698889593 -0.9346887365249903 -0.0579282266983721
| 45> C -4.986316341783106 2.0146664802105296 1.6653782673473485
| 46> H -3.3824496925342333 3.083519330355109 2.1310934294475343
| 47> H -6.617197364041138 0.6518207556653611 1.0308444192150734
| 48> H -5.86231736019959 2.5693209913828166 2.0750236094806565
| 49> *
| 50>
| 51> % eprnmr
| 52> gtensor true
| 53> Nuclei = all H {aiso,adip,aorb,fgrad,rho}
| 54> Nuclei = all Cu {aiso,adip,aorb,fgrad,rho}
| 55> end
| 56>
| 57>                          ****END OF INPUT****

CARTESIAN COORDINATES (ANGSTROEM)
---------------------------------
  Cu     0.000357   -0.000056    0.000000
  S     -2.073336   -1.033523    0.000000
  C     -3.255324    0.236895    0.000000
  S      1.093374   -2.046203    0.000000
  C      2.790165   -1.527191    0.000000
  S     -1.091575    2.043405    0.000000
  C     -2.791289    1.692886    0.000000
  S      2.076159    1.035048    0.000000
  C      3.128197   -0.368614    0.000000
  C      4.660754    0.043722    0.000000
  C      3.712288   -2.724616    0.000000
  C      5.257799   -2.177037    0.000000
  H      3.333386   -3.750001    0.000000
  C      5.511229   -1.236174    0.000000
  H      4.813982    1.137290    0.000000
  H      5.578429   -3.333402    0.000000
  H      6.466289   -0.588203    0.000000
  C     -4.578401    0.058690    0.000000
  C     -3.761236    2.603471    0.000000
  C     -5.548834    0.930041    0.000000
  H     -4.950912   -0.958951    0.000000
  C     -5.066353    2.455156    0.000000
  H     -3.485753    3.652416    0.000000
  H     -6.665696    0.918322    0.000000
  H     -5.962144    3.118772    0.000000

 Total Charge           Charge          ....   -2
 Multiplicity           Mult            ....    2
 Number of Electrons    NEL             ....  175
 Basis Dimension        Dim             ....  475

ORBITAL ENERGIES
----------------
                 SPIN UP ORBITALS
  NO   OCC          E(Eh)            E(eV)    Irrep
   0   1.0000    -318.180567     -8658.1334    1-A'
   1   1.0000     -88.018112     -2395.0946    2-A'
   2   1.0000     -88.016763     -2395.0579    3-A'
   3   1.0000     -88.016360     -2395.0469    4-A'
   4   1.0000     -88.011707     -2394.9203    5-A'
   5   1.0000     -38.025499     -1034.7264    6-A'
   6   1.0000     -33.528442      -912.3553    7-A'
   7   1.0000     -33.527812      -912.3382    8-A'
   8   1.0000     -33.514334      -911.9714    1-A"
   9   1.0000      -9.842566      -267.8298    9-A'
  10   1.0000      -9.840669      -267.7782   10-A'
  11   1.0000      -9.831067      -267.5169   11-A'
  12   1.0000      -9.830252      -267.4947   12-A'
  13   1.0000      -9.829587      -267.4767   13-A'
  14   1.0000      -9.827941      -267.4319   14-A'
  15   1.0000      -9.826203      -267.3846   15-A'
  16   1.0000      -9.824402      -267.3356   16-A'
  17   1.0000      -9.824265      -267.3318   17-A'
  18   1.0000      -9.809195      -266.9218   18-A'
  19   1.0000      -9.804225      -266.7865   19-A'
  20   1.0000      -9.803797      -266.7749   20-A'
  21   1.0000      -7.586595      -206.4417   21-A'
  22   1.0000      -7.585215      -206.4042   22-A'
  23   1.0000      -7.584877      -206.3950   23-A'
  24   1.0000      -7.580334      -206.2714   24-A'
  25   1.0000      -5.509951      -149.9334   25-A'
  26   1.0000      -5.508386      -149.8908   26-A'
  27   1.0000      -5.508037      -149.8813   27-A'
  28   1.0000      -5.504561      -149.7867   28-A'
  29   1.0000      -5.503762      -149.7650   29-A'
  30   1.0000      -5.502913      -149.7419   30-A'
  31   1.0000      -5.502597      -149.7333    2-A"
  32   1.0000      -5.502567      -149.7324   31-A'
  33   1.0000      -5.501553      -149.7049    3-A"
  34   1.0000      -5.501200      -149.6953    4-A"
  35   1.0000      -5.498483      -149.6213   32-A'
  36   1.0000      -5.496082      -149.5560    5-A"
  37   1.0000      -4.023047      -109.4727   33-A'
  38   1.0000      -2.544035       -69.2267   34-A'
  39   1.0000      -2.542934       -69.1967   35-A'
  40   1.0000      -2.516057       -68.4654    6-A"
  41   1.0000      -0.608212       -16.5503   36-A'
  42   1.0000      -0.589632       -16.0447   37-A'
  43   1.0000      -0.554642       -15.0926   38-A'
  44   1.0000      -0.508807       -13.8453   39-A'
  45   1.0000      -0.487319       -13.2606   40-A'
  46   1.0000      -0.456089       -12.4108   41-A'
  47   1.0000      -0.417001       -11.3472   42-A'
  48   1.0000      -0.396129       -10.7792   43-A'
  49   1.0000      -0.387016       -10.5312   44-A'
  50   1.0000      -0.378177       -10.2907   45-A'
  51   1.0000      -0.360613        -9.8128   46-A'
  52   1.0000      -0.308981        -8.4078   47-A'
  53   1.0000      -0.304419        -8.2837   48-A'
  54   1.0000      -0.270337        -7.3562   49-A'
  55   1.0000      -0.252791        -6.8788   50-A'
  56   1.0000      -0.230596        -6.2748   51-A'
  57   1.0000      -0.207379        -5.6431   52-A'
  58   1.0000      -0.182467        -4.9652   53-A'
  59   1.0000      -0.180133        -4.9017   54-A'
  60   1.0000      -0.178995        -4.8707   55-A'
  61   1.0000      -0.156593        -4.2611   56-A'
  62   1.0000      -0.149342        -4.0638    7-A"
  63   1.0000      -0.142349        -3.8735   57-A'
  64   1.0000      -0.120584        -3.2813   58-A'
  65   1.0000      -0.117106        -3.1866    8-A"
  66   1.0000      -0.090649        -2.4667    9-A"
  67   1.0000      -0.090245        -2.4557   59-A'
  68   1.0000      -0.086934        -2.3656   60-A'
  69   1.0000      -0.081666        -2.2222   61-A'
  70   1.0000      -0.040667        -1.1066   62-A'
  71   1.0000      -0.038814        -1.0562   10-A"
  72   1.0000      -0.036197        -0.9850   63-A'
  73   1.0000      -0.025720        -0.6999   11-A"
  74   1.0000      -0.019911        -0.5418   64-A'
  75   1.0000      -0.012431        -0.3383   12-A"
  76   1.0000      -0.000967        -0.0263   65-A'
  77   1.0000       0.001411         0.0384   13-A"
  78   1.0000       0.012524         0.3408   66-A'
  79   1.0000       0.012890         0.3508   14-A"
  80   1.0000       0.017278         0.4702   67-A'
  81   1.0000       0.022965         0.6249   68-A'
  82   1.0000       0.036243         0.9862   69-A'
  83   1.0000       0.044856         1.2206   15-A"
  84   1.0000       0.056765         1.5447   16-A"
  85   1.0000       0.065115         1.7719   17-A"
  86   1.0000       0.088073         2.3966   18-A"
  87   1.0000       0.107238         2.9181   70-A'
  88   0.0000       0.137982         3.7547   19-A"
  89   0.0000       0.174258         4.7418   71-A'
  90   0.0000       0.181753         4.9457   72-A'
  91   0.0000       0.189570         5.1585   20-A"
  92   0.0000       0.194395         5.2897   73-A'

                 SPIN DOWN ORBITALS
  NO   OCC          E(Eh)            E(eV)    Irrep
   0   1.0000    -318.180397     -8658.1288    1-A'
   1   1.0000     -88.017000     -2395.0643    2-A'
   2   1.0000     -88.015716     -2395.0294    3-A'
   3   1.0000     -88.015333     -2395.0190    4-A'
   4   1.0000     -88.010571     -2394.8894    5-A'
   5   1.0000     -38.009940     -1034.3031    6-A'
   6   1.0000     -33.513598      -911.9514    7-A'
   7   1.0000     -33.512977      -911.9345    8-A'
   8   1.0000     -33.510069      -911.8553    1-A"
   9   1.0000      -9.842552      -267.8295    9-A'
  10   1.0000      -9.840638      -267.7774   10-A'
  11   1.0000      -9.831150      -267.5192   11-A'
  12   1.0000      -9.830347      -267.4974   12-A'
  13   1.0000      -9.829679      -267.4792   13-A'
  14   1.0000      -9.828018      -267.4340   14-A'
  15   1.0000      -9.826158      -267.3834   15-A'
  16   1.0000      -9.824390      -267.3352   16-A'
  17   1.0000      -9.824251      -267.3315   17-A'
  18   1.0000      -9.809152      -266.9206   18-A'
  19   1.0000      -9.804166      -266.7849   19-A'
  20   1.0000      -9.803735      -266.7732   20-A'
  21   1.0000      -7.585827      -206.4208   21-A'
  22   1.0000      -7.584498      -206.3847   22-A'
  23   1.0000      -7.584172      -206.3758   23-A'
  24   1.0000      -7.579556      -206.2502   24-A'
  25   1.0000      -5.508936      -149.9058   25-A'
  26   1.0000      -5.507482      -149.8662   26-A'
  27   1.0000      -5.507150      -149.8572   27-A'
  28   1.0000      -5.502713      -149.7364   28-A'
  29   1.0000      -5.502267      -149.7243   29-A'
  30   1.0000      -5.501720      -149.7094    2-A"
  31   1.0000      -5.500745      -149.6829   30-A'
  32   1.0000      -5.500733      -149.6826    3-A"
  33   1.0000      -5.500437      -149.6745   31-A'
  34   1.0000      -5.500397      -149.6734    4-A"
  35   1.0000      -5.496150      -149.5579   32-A'
  36   1.0000      -5.495209      -149.5322    5-A"
  37   1.0000      -3.990151      -108.5775   33-A'
  38   1.0000      -2.504523       -68.1515    6-A"
  39   1.0000      -2.503041       -68.1112   34-A'
  40   1.0000      -2.501870       -68.0793   35-A'
  41   1.0000      -0.607991       -16.5443   36-A'
  42   1.0000      -0.589220       -16.0335   37-A'
  43   1.0000      -0.553919       -15.0729   38-A'
  44   1.0000      -0.508029       -13.8242   39-A'
  45   1.0000      -0.485591       -13.2136   40-A'
  46   1.0000      -0.454183       -12.3590   41-A'
  47   1.0000      -0.413097       -11.2409   42-A'
  48   1.0000      -0.393489       -10.7074   43-A'
  49   1.0000      -0.383222       -10.4280   44-A'
  50   1.0000      -0.375247       -10.2110   45-A'
  51   1.0000      -0.357918        -9.7394   46-A'
  52   1.0000      -0.306760        -8.3474   47-A'
  53   1.0000      -0.303512        -8.2590   48-A'
  54   1.0000      -0.268602        -7.3090   49-A'
  55   1.0000      -0.252373        -6.8674   50-A'
  56   1.0000      -0.229928        -6.2567   51-A'
  57   1.0000      -0.206405        -5.6166   52-A'
  58   1.0000      -0.181792        -4.9468   53-A'
  59   1.0000      -0.179071        -4.8728   54-A'
  60   1.0000      -0.177992        -4.8434   55-A'
  61   1.0000      -0.156119        -4.2482   56-A'
  62   1.0000      -0.149453        -4.0668    7-A"
  63   1.0000      -0.141357        -3.8465   57-A'
  64   1.0000      -0.118512        -3.2249   58-A'
  65   1.0000      -0.116889        -3.1807    8-A"
  66   1.0000      -0.089922        -2.4469    9-A"
  67   1.0000      -0.088536        -2.4092   59-A'
  68   1.0000      -0.084905        -2.3104   60-A'
  69   1.0000      -0.072318        -1.9679   61-A'
  70   1.0000      -0.037885        -1.0309   10-A"
  71   1.0000      -0.037347        -1.0163   62-A'
  72   1.0000      -0.023033        -0.6268   11-A"
  73   1.0000      -0.015090        -0.4106   63-A'
  74   1.0000      -0.004075        -0.1109   12-A"
  75   1.0000      -0.003427        -0.0933   64-A'
  76   1.0000       0.009020         0.2454   65-A'
  77   1.0000       0.012741         0.3467   13-A"
  78   1.0000       0.016259         0.4424   66-A'
  79   1.0000       0.017496         0.4761   14-A"
  80   1.0000       0.027391         0.7453   67-A'
  81   1.0000       0.034568         0.9406   68-A'
  82   1.0000       0.043978         1.1967   69-A'
  83   1.0000       0.049501         1.3470   15-A"
  84   1.0000       0.059464         1.6181   16-A"
  85   1.0000       0.067969         1.8495   17-A"
  86   1.0000       0.091624         2.4932   18-A"
  87   0.0000       0.137684         3.7466   19-A"
  88   0.0000       0.138966         3.7815   70-A'
  89   0.0000       0.174980         4.7614   71-A'
  90   0.0000       0.182317         4.9611   72-A'
  91   0.0000       0.190029         5.1709   20-A"

MULLIKEN ATOMIC CHARGES AND SPIN POPULATIONS
--------------------------------------------
   0 Cu:    0.137598    0.367340
   1 S :   -0.418997    0.154916
   2 C :   -0.039288   -0.005133
   3 S :   -0.441556    0.177523
   4 C :    0.106307   -0.007900
   5 S :   -0.426105    0.152761
   6 C :   -0.037946   -0.004987
   7 S :   -0.414022    0.172225
   8 C :    0.083174   -0.007453
   9 C :   -0.243228   -0.010667
  10 C :   -0.217600   -0.010582
  11 C :   -0.011073    0.002243
  12 H :    0.080095    0.003662
  13 C :    0.048164    0.000898
  14 H :    0.081799    0.004208
  15 H :   -0.067435    0.004256
  16 H :   -0.053397    0.005995
  17 C :   -0.006689   -0.000457
  18 C :   -0.004734   -0.000460
  19 C :   -0.144221   -0.001470
  20 H :    0.063736    0.001689
  21 C :   -0.150400   -0.001631
  22 H :    0.063227    0.001626
  23 H :    0.005764    0.000704
  24 H :    0.006830    0.000698
Sum of atomic charges         :   -2.0000000

LOEWDIN ATOMIC CHARGES AND SPIN POPULATIONS
-------------------------------------------
   0 Cu:   -0.891143    0.434578
   1 S :    0.020041    0.121443
   2 C :   -0.023046    0.006551
   3 S :   -0.002616    0.132015
   4 C :   -0.078516    0.004716
   5 S :    0.017048    0.118984
   6 C :   -0.026304    0.006414
   7 S :    0.023960    0.129313
   8 C :   -0.058680    0.004670
   9 C :    0.435367    0.000482
  10 C :    0.439821    0.001050
  11 C :    0.185254    0.002024
  12 H :   -0.453390    0.005674
  13 C :    0.137013    0.001700
  14 H :   -0.458219    0.006611
  15 H :   -0.338258    0.002608
  16 H :   -0.370294    0.003137
  17 C :    0.231331    0.003958
  18 C :    0.232835    0.003855
  19 C :    0.341044   -0.000547
  20 H :   -0.452887    0.005771
  21 C :    0.344220   -0.000638
  22 H :   -0.452351    0.005611
  23 H :   -0.400052    0.000032
  24 H :   -0.402179   -0.000011

  Mayer bond orders larger than 0.100000
B(  0-Cu,  1-S ) :   0.6940 B(  0-Cu,  3-S ) :   0.7091 B(  0-Cu,  5-S ) :   0.6929
B(  0-Cu,  7-S ) :   0.6952 B(  1-S ,  2-C ) :   1.2132 B(  2-C ,  6-C ) :   1.2244
B(  2-C , 17-C ) :   1.2893 B(  3-S ,  4-C ) :   1.1065 B(  4-C ,  8-C ) :   1.3232
B(  4-C , 10-C ) :   1.3175 B(  5-S ,  6-C ) :   1.2091 B(  6-C , 18-C ) :   1.2944
B(  7-S ,  8-C ) :   1.1528 B(  8-C ,  9-C ) :   1.2778 B(  9-C , 10-C ) :   0.2170
B(  9-C , 13-C ) :   1.0697 B(  9-C , 14-H ) :   0.9561 B( 10-C , 11-C ) :   1.0391
B( 10-C , 12-H ) :   0.9610 B( 11-C , 13-C ) :   1.7514 B( 11-C , 15-H ) :   0.9088
B( 13-C , 16-H ) :   0.9180 B( 17-C , 19-C ) :   1.4128 B( 17-C , 20-H ) :   0.9657
B( 18-C , 21-C ) :   1.4081 B( 18-C , 22-H ) :   0.9658 B( 19-C , 21-C ) :   1.2203
B( 19-C , 23-H ) :   0.9869 B( 21-C , 24-H ) :   0.9882

FINAL SINGLE POINT ENERGY     -3686.372411956412

DIPOLE MOMENT
-------------
                                X             Y             Z
Electronic contribution:      1.11416      -0.26721      -0.00000
Nuclear contribution   :     -0.82047       0.18444       0.00000
                        -----------------------------------------
Total Dipole Moment    :      0.29370      -0.08278      -0.00000
                        -----------------------------------------
Magnitude (a.u.)       :      0.30514
Magnitude (Debye)      :      0.77560

Rotational constants in cm-1:     0.033392     0.004802     0.004198
Rotational constants in MHz :  1001.055057   143.960854   125.860907

                             ****ORCA TERMINATED NORMALLY****
TOTAL RUN TIME: 0 days 6 hours 7 minutes 52 seconds 399 msec
