                         Program Version 5.0.4 -  RELEASE  -
|  1> ! RIJCOSX nofrozencore ReducedPop printbasis
|  2> ! M06L ano-rcc-dzp autoaux
|  3>
|  4> %maxcore 5000
|  5> %basis
|  6> PCDTrimBas overlap
|  7> PCDTrimAuxJ Coulomb
|  8> PCDTrimAuxJK Coulomb
|  9> PCDTrimAuxC Coulomb
| 10> PCDThresh -1
| 11> end
| 12>
| 13> %basis
| 14> newgto Cu "ano-rcc-tzp" end
| 15> newgto S "ano-rcc-tzp" end
| 16> end
| 17>
| 18> %pal
| 19> nprocs 12
| 20> end
| 21>
| 22> % sym SymThresh 1e-2 end
| 23> * xyz -2 2
| 24> Cu 8.628847131371042e-07 -5.7141870359237e-06 -6.899528715087417e-06
| 25> S 1.3185396306897377 1.6365594955017413 0.9774484485478793
| 26> C 0.34905089331189465 2.2567366786066096 2.2848891364253934
| 27> S 1.637242994141978 -0.47378164669075307 -1.5706751218511132
| 28> C 0.9532348201787512 -1.7453626000243743 -2.5472952761483976
| 29> S -1.6372264888841415 0.47385203867243364 1.5707428089649447
| 30> C -0.9532602188969163 1.7444526375072253 2.5463003936817215
| 31> S -1.3185743524026294 -1.636509254645997 -0.9773704789443922
| 32> C -0.34876912984701197 -2.257537247515612 -2.285958379041358
| 33> C -0.8255172513728519 -3.2750468163039343 -3.112465364469664
| 34> C 1.6666768078562628 -2.2946816717752845 -3.6126954216197973
| 35> C 1.163712530772552 -3.2961928272240284 -4.404705332847796
| 36> H 2.834900634979053 -1.8261989147554183 -3.8372536021491324
| 37> C -0.09353762981165002 -3.790760682748845 -4.152349359539095
| 38> H -1.9972372956206206 -3.727006343292799 -2.867317902161752
| 39> H 1.8769899054866666 -3.765639279396829 -5.381252036875981
| 40> H -0.5929930715993982 -4.737264571985849 -4.8854772906137685
| 41> C 0.85398872985652 3.285185897822126 3.105571849479364
| 42> C -1.6948561316005266 2.282562962651921 3.6172029849858838
| 43> C 0.10714783833690085 3.815942817623371 4.171649172285865
| 44> H 1.6790902750070853 3.6045979652271356 2.9342232206952192
| 45> C -1.1829864223789557 3.3084460875519945 4.430613252017032
| 46> H -2.517377045179848 1.9538331809846274 3.776552526028875
| 47> H 0.4469117090624592 4.462201252998921 4.673019283157597
| 48> H -1.6688233631126541 3.6298771667424146 5.097633365296238
| 49> *
| 50>
| 51> % eprnmr
| 52> gtensor true
| 53> Nuclei = all H {aiso,adip,aorb,fgrad,rho}
| 54> Nuclei = all Cu {aiso,adip,aorb,fgrad,rho}
| 55> end
| 56>
| 57>                          ****END OF INPUT****

CARTESIAN COORDINATES (ANGSTROEM)
---------------------------------
  Cu     0.000000    0.000000   -0.000009
  S      1.615583    0.000000    1.661978
  C      0.711826    0.000000    3.150991
  S      1.615611    0.000000   -1.661882
  C      0.711659    0.000000   -3.152337
  S     -1.615583    0.000000    1.661978
  C     -0.711826    0.000000    3.150991
  S     -1.615611    0.000000   -1.661882
  C     -0.711659    0.000000   -3.152337
  C     -1.362202    0.000000   -4.386263
  C      1.362202    0.000000   -4.386263
  C      0.687197    0.000000   -5.581070
  H      2.641183    0.000000   -4.372958
  C     -0.687197    0.000000   -5.581070
  H     -2.641183    0.000000   -4.372958
  H      1.350061    0.000000   -6.696151
  H     -1.350061    0.000000   -6.696151
  C      1.393165    0.000000    4.384706
  C     -1.393165    0.000000    4.384706
  C      0.705170    0.000000    5.610554
  H      2.293735    0.000000    4.377025
  C     -0.705170    0.000000    5.610554
  H     -2.293735    0.000000    4.377025
  H      1.156438    0.000000    6.372607
  H     -1.156438    0.000000    6.372607

 Total Charge           Charge          ....   -2
 Multiplicity           Mult            ....    2
 Number of Electrons    NEL             ....  175
 Basis Dimension        Dim             ....  475

ORBITAL ENERGIES
----------------
                 SPIN UP ORBITALS
  NO   OCC          E(Eh)            E(eV)    Irrep
   0   1.0000    -318.182273     -8658.1798    1-A1
   1   1.0000     -88.016998     -2395.0643    1-B1
   2   1.0000     -88.016987     -2395.0640    2-A1
   3   1.0000     -88.013570     -2394.9710    2-B1
   4   1.0000     -88.013559     -2394.9707    3-A1
   5   1.0000     -38.027489     -1034.7806    4-A1
   6   1.0000     -33.530636      -912.4150    3-B1
   7   1.0000     -33.529789      -912.3920    5-A1
   8   1.0000     -33.515984      -912.0163    1-B2
   9   1.0000      -9.847464      -267.9631    6-A1
  10   1.0000      -9.846963      -267.9495    4-B1
  11   1.0000      -9.837964      -267.7046    7-A1
  12   1.0000      -9.837734      -267.6983    5-B1
  13   1.0000      -9.837401      -267.6893    8-A1
  14   1.0000      -9.837307      -267.6867    6-B1
  15   1.0000      -9.829962      -267.4869    9-A1
  16   1.0000      -9.829630      -267.4778    7-B1
  17   1.0000      -9.801571      -266.7143   10-A1
  18   1.0000      -9.801195      -266.7041    8-B1
  19   1.0000      -9.796792      -266.5843    9-B1
  20   1.0000      -9.796789      -266.5842   11-A1
  21   1.0000      -7.585601      -206.4147   10-B1
  22   1.0000      -7.585591      -206.4144   12-A1
  23   1.0000      -7.582341      -206.3260   11-B1
  24   1.0000      -7.582331      -206.3257   13-A1
  25   1.0000      -5.508951      -149.9062   12-B1
  26   1.0000      -5.508950      -149.9062   14-A1
  27   1.0000      -5.505442      -149.8107   13-B1
  28   1.0000      -5.505441      -149.8107   15-A1
  29   1.0000      -5.503416      -149.7556   14-B1
  30   1.0000      -5.503416      -149.7556   16-A1
  31   1.0000      -5.501624      -149.7068    1-A2
  32   1.0000      -5.501624      -149.7068    2-B2
  33   1.0000      -5.500308      -149.6710   15-B1
  34   1.0000      -5.500308      -149.6710   17-A1
  35   1.0000      -5.498437      -149.6201    2-A2
  36   1.0000      -5.498437      -149.6201    3-B2
  37   1.0000      -4.025091      -109.5283   18-A1
  38   1.0000      -2.546544       -69.2950   16-B1
  39   1.0000      -2.545003       -69.2531   19-A1
  40   1.0000      -2.517537       -68.5057    4-B2
  41   1.0000      -0.599885       -16.3237   20-A1
  42   1.0000      -0.585424       -15.9302   21-A1
  43   1.0000      -0.508381       -13.8338   22-A1
  44   1.0000      -0.507133       -13.7998   23-A1
  45   1.0000      -0.498901       -13.5758   17-B1
  46   1.0000      -0.489550       -13.3213   18-B1
  47   1.0000      -0.414453       -11.2779   19-B1
  48   1.0000      -0.408402       -11.1132   20-B1
  49   1.0000      -0.395288       -10.7563   24-A1
  50   1.0000      -0.383079       -10.4241   25-A1
  51   1.0000      -0.339111        -9.2277   26-A1
  52   1.0000      -0.322624        -8.7790   21-B1
  53   1.0000      -0.309673        -8.4266   27-A1
  54   1.0000      -0.289059        -7.8657   22-B1
  55   1.0000      -0.247276        -6.7287   28-A1
  56   1.0000      -0.213002        -5.7961   29-A1
  57   1.0000      -0.204806        -5.5730   23-B1
  58   1.0000      -0.198019        -5.3884   30-A1
  59   1.0000      -0.183844        -5.0027   31-A1
  60   1.0000      -0.155706        -4.2370   24-B1
  61   1.0000      -0.145415        -3.9569   25-B1
  62   1.0000      -0.133108        -3.6221   26-B1
  63   1.0000      -0.132530        -3.6063   32-A1
  64   1.0000      -0.126182        -3.4336    5-B2
  65   1.0000      -0.115115        -3.1324   33-A1
  66   1.0000      -0.110501        -3.0069    6-B2
  67   1.0000      -0.085105        -2.3158   34-A1
  68   1.0000      -0.070511        -1.9187   27-B1
  69   1.0000      -0.065516        -1.7828   28-B1
  70   1.0000      -0.061177        -1.6647   35-A1
  71   1.0000      -0.044098        -1.2000    7-B2
  72   1.0000      -0.034308        -0.9336    8-B2
  73   1.0000      -0.032094        -0.8733   29-B1
  74   1.0000      -0.030111        -0.8194   36-A1
  75   1.0000      -0.028871        -0.7856    3-A2
  76   1.0000      -0.019388        -0.5276    4-A2
  77   1.0000      -0.003401        -0.0925    5-A2
  78   1.0000      -0.001550        -0.0422   37-A1
  79   1.0000       0.000518         0.0141    9-B2
  80   1.0000       0.016853         0.4586   38-A1
  81   1.0000       0.018998         0.5170   39-A1
  82   1.0000       0.033967         0.9243   30-B1
  83   1.0000       0.048005         1.3063    6-A2
  84   1.0000       0.052738         1.4351    7-A2
  85   1.0000       0.061534         1.6744   10-B2
  86   1.0000       0.086962         2.3664   11-B2
  87   1.0000       0.104198         2.8354   31-B1
  88   0.0000       0.167128         4.5478   40-A1
  89   0.0000       0.185154         5.0383   41-A1
  90   0.0000       0.191262         5.2045   32-B1
  91   0.0000       0.199835         5.4378   33-B1
  92   0.0000       0.200278         5.4499   12-B2

                 SPIN DOWN ORBITALS
  NO   OCC          E(Eh)            E(eV)    Irrep
   0   1.0000    -318.182098     -8658.1751    1-A1
   1   1.0000     -88.015942     -2395.0355    1-B1
   2   1.0000     -88.015931     -2395.0353    2-A1
   3   1.0000     -88.012489     -2394.9416    2-B1
   4   1.0000     -88.012479     -2394.9413    3-A1
   5   1.0000     -38.011604     -1034.3483    4-A1
   6   1.0000     -33.515460      -912.0020    3-B1
   7   1.0000     -33.514646      -911.9799    5-A1
   8   1.0000     -33.511655      -911.8985    1-B2
   9   1.0000      -9.847439      -267.9624    6-A1
  10   1.0000      -9.846938      -267.9488    4-B1
  11   1.0000      -9.838057      -267.7072    7-A1
  12   1.0000      -9.837788      -267.6998    5-B1
  13   1.0000      -9.837369      -267.6884    8-A1
  14   1.0000      -9.837314      -267.6869    6-B1
  15   1.0000      -9.830075      -267.4899    9-A1
  16   1.0000      -9.829743      -267.4809    7-B1
  17   1.0000      -9.801550      -266.7137   10-A1
  18   1.0000      -9.801174      -266.7035    8-B1
  19   1.0000      -9.796733      -266.5826    9-B1
  20   1.0000      -9.796729      -266.5826   11-A1
  21   1.0000      -7.584874      -206.3949   10-B1
  22   1.0000      -7.584865      -206.3947   12-A1
  23   1.0000      -7.581601      -206.3059   11-B1
  24   1.0000      -7.581592      -206.3056   13-A1
  25   1.0000      -5.508045      -149.8815   12-B1
  26   1.0000      -5.508044      -149.8815   14-A1
  27   1.0000      -5.504492      -149.7848   13-B1
  28   1.0000      -5.504491      -149.7848   15-A1
  29   1.0000      -5.501182      -149.6948   14-B1
  30   1.0000      -5.501182      -149.6948   16-A1
  31   1.0000      -5.500818      -149.6849    1-A2
  32   1.0000      -5.500818      -149.6849    2-B2
  33   1.0000      -5.498050      -149.6095   15-B1
  34   1.0000      -5.498049      -149.6095   17-A1
  35   1.0000      -5.497615      -149.5977    2-A2
  36   1.0000      -5.497615      -149.5977    3-B2
  37   1.0000      -3.991321      -108.6094   18-A1
  38   1.0000      -2.505820       -68.1868    4-B2
  39   1.0000      -2.504438       -68.1492   16-B1
  40   1.0000      -2.502874       -68.1067   19-A1
  41   1.0000      -0.599584       -16.3155   20-A1
  42   1.0000      -0.585045       -15.9199   21-A1
  43   1.0000      -0.507060       -13.7978   22-A1
  44   1.0000      -0.505942       -13.7674   23-A1
  45   1.0000      -0.498075       -13.5533   17-B1
  46   1.0000      -0.488462       -13.2917   18-B1
  47   1.0000      -0.410549       -11.1716   19-B1
  48   1.0000      -0.404383       -11.0038   20-B1
  49   1.0000      -0.392629       -10.6840   24-A1
  50   1.0000      -0.379754       -10.3336   25-A1
  51   1.0000      -0.337239        -9.1767   26-A1
  52   1.0000      -0.320691        -8.7264   21-B1
  53   1.0000      -0.308476        -8.3941   27-A1
  54   1.0000      -0.286923        -7.8076   22-B1
  55   1.0000      -0.246471        -6.7068   28-A1
  56   1.0000      -0.212367        -5.7788   29-A1
  57   1.0000      -0.203812        -5.5460   23-B1
  58   1.0000      -0.197196        -5.3660   30-A1
  59   1.0000      -0.182794        -4.9741   31-A1
  60   1.0000      -0.154741        -4.2107   24-B1
  61   1.0000      -0.144656        -3.9363   25-B1
  62   1.0000      -0.131849        -3.5878   26-B1
  63   1.0000      -0.131381        -3.5751   32-A1
  64   1.0000      -0.126046        -3.4299    5-B2
  65   1.0000      -0.114071        -3.1040   33-A1
  66   1.0000      -0.110268        -3.0005    6-B2
  67   1.0000      -0.083604        -2.2750   34-A1
  68   1.0000      -0.068845        -1.8734   27-B1
  69   1.0000      -0.059630        -1.6226   35-A1
  70   1.0000      -0.051255        -1.3947   28-B1
  71   1.0000      -0.042735        -1.1629    7-B2
  72   1.0000      -0.032758        -0.8914    8-B2
  73   1.0000      -0.026626        -0.7245    3-A2
  74   1.0000      -0.023254        -0.6328   36-A1
  75   1.0000      -0.017492        -0.4760    4-A2
  76   1.0000      -0.003339        -0.0909   29-B1
  77   1.0000       0.006040         0.1644    5-A2
  78   1.0000       0.009287         0.2527   37-A1
  79   1.0000       0.012760         0.3472    9-B2
  80   1.0000       0.025022         0.6809   38-A1
  81   1.0000       0.033434         0.9098   39-A1
  82   1.0000       0.042274         1.1503   30-B1
  83   1.0000       0.051473         1.4007    6-A2
  84   1.0000       0.057731         1.5709    7-A2
  85   1.0000       0.063413         1.7255   10-B2
  86   1.0000       0.091101         2.4790   11-B2
  87   0.0000       0.137241         3.7345   31-B1
  88   0.0000       0.168184         4.5765   40-A1
  89   0.0000       0.185532         5.0486   41-A1
  90   0.0000       0.193689         5.2705   32-B1
  91   0.0000       0.200254         5.4492   33-B1

MULLIKEN ATOMIC CHARGES AND SPIN POPULATIONS
--------------------------------------------
   0 Cu:    0.140762    0.375820
   1 S :   -0.439695    0.165539
   2 C :   -0.011352   -0.007619
   3 S :   -0.406735    0.159930
   4 C :    0.044001   -0.007297
   5 S :   -0.439695    0.165539
   6 C :   -0.011352   -0.007619
   7 S :   -0.406735    0.159930
   8 C :    0.044001   -0.007297
   9 C :   -0.006557   -0.000761
  10 C :   -0.006557   -0.000761
  11 C :   -0.030309   -0.001130
  12 H :   -0.052515    0.001429
  13 C :   -0.030309   -0.001130
  14 H :   -0.052515    0.001429
  15 H :   -0.088386    0.001688
  16 H :   -0.088386    0.001688
  17 C :   -0.313789   -0.002256
  18 C :   -0.313789   -0.002256
  19 C :   -0.412153   -0.000582
  20 H :    0.327152    0.002520
  21 C :   -0.412153   -0.000582
  22 H :    0.327152    0.002520
  23 H :    0.319955    0.000628
  24 H :    0.319955    0.000628
Sum of atomic charges         :   -2.0000000

LOEWDIN ATOMIC CHARGES AND SPIN POPULATIONS
-------------------------------------------
   0 Cu:   -0.893412    0.442400
   1 S :    0.019152    0.125748
   2 C :    0.002505    0.005394
   3 S :   -0.000228    0.122180
   4 C :   -0.069067    0.004982
   5 S :    0.019152    0.125748
   6 C :    0.002505    0.005394
   7 S :   -0.000228    0.122180
   8 C :   -0.069067    0.004982
   9 C :    0.193261    0.003606
  10 C :    0.193261    0.003606
  11 C :    0.163583   -0.000119
  12 H :   -0.298981    0.006463
  13 C :    0.163583   -0.000119
  14 H :   -0.298981    0.006463
  15 H :   -0.271093    0.000616
  16 H :   -0.271093    0.000616
  17 C :    0.471886    0.004147
  18 C :    0.471886    0.004147
  19 C :    0.524841   -0.000091
  20 H :   -0.654373    0.005883
  21 C :    0.524841   -0.000091
  22 H :   -0.654373    0.005883
  23 H :   -0.634779   -0.000008
  24 H :   -0.634779   -0.000008

  Mayer bond orders larger than 0.100000
B(  0-Cu,  1-S ) :   0.7051 B(  0-Cu,  3-S ) :   0.6979 B(  0-Cu,  5-S ) :   0.7051
B(  0-Cu,  7-S ) :   0.6979 B(  1-S ,  2-C ) :   1.1898 B(  2-C ,  6-C ) :   1.2477
B(  2-C , 17-C ) :   1.3540 B(  3-S ,  4-C ) :   1.1826 B(  4-C ,  8-C ) :   1.2367
B(  4-C , 10-C ) :   1.3141 B(  5-S ,  6-C ) :   1.1898 B(  6-C , 18-C ) :   1.3540
B(  7-S ,  8-C ) :   1.1826 B(  8-C ,  9-C ) :   1.3141 B(  9-C , 13-C ) :   1.3565
B(  9-C , 14-H ) :   0.9921 B( 10-C , 11-C ) :   1.3565 B( 10-C , 12-H ) :   0.9921
B( 11-C , 13-C ) :   1.3322 B( 11-C , 15-H ) :   0.9969 B( 13-C , 16-H ) :   0.9969
B( 17-C , 19-C ) :   1.4423 B( 17-C , 20-H ) :   0.7672 B( 18-C , 21-C ) :   1.4423
B( 18-C , 22-H ) :   0.7672 B( 19-C , 21-C ) :   1.4211 B( 19-C , 23-H ) :   0.7686
B( 21-C , 24-H ) :   0.7686

FINAL SINGLE POINT ENERGY     -3686.717481540291

DIPOLE MOMENT
-------------
                                X             Y             Z
Electronic contribution:     -0.00000      -0.00000       1.22255
Nuclear contribution   :      0.00000       0.00000      -0.59941
                        -----------------------------------------
Total Dipole Moment    :     -0.00000      -0.00000       0.62314
                        -----------------------------------------
Magnitude (a.u.)       :      0.62314
Magnitude (Debye)      :      1.58388

Rotational constants in cm-1:     0.033408     0.004804     0.004200
Rotational constants in MHz :  1001.556942   144.012199   125.908086

                             ****ORCA TERMINATED NORMALLY****
TOTAL RUN TIME: 0 days 6 hours 27 minutes 21 seconds 380 msec
