                         Program Version 5.0.4 -  RELEASE  -
|  1> ! RIJCOSX nofrozencore ReducedPop printbasis
|  2> ! M06L ano-rcc-dzp autoaux
|  3>
|  4> %maxcore 5000
|  5> %basis
|  6> PCDTrimBas overlap
|  7> PCDTrimAuxJ Coulomb
|  8> PCDTrimAuxJK Coulomb
|  9> PCDTrimAuxC Coulomb
| 10> PCDThresh -1
| 11> end
| 12>
| 13> %basis
| 14> newgto Cu "ano-rcc-tzp" end
| 15> newgto S "ano-rcc-tzp" end
| 16> end
| 17>
| 18> %pal
| 19> nprocs 12
| 20> end
| 21>
| 22> % sym SymThresh 1e-2 end
| 23> * xyz -2 2
| 24> Cu -2.440229585277012e-06 -5.776181455512697e-06 -1.8991603601700677e-05
| 25> S -0.7577033245006338 -2.065955659232661 0.7279324656314132
| 26> C -2.4845986397265234 -1.8760382003752596 0.8644434938380101
| 27> S 2.192302290090625 -0.750237778090936 -0.05592425944593042
| 28> C 3.116857538941468 0.6359636219962924 -0.566445545357265
| 29> S -2.1923242521568924 0.7501857924578363 0.055753335013515114
| 30> C -3.1166137600058987 -0.6353865814688867 0.5683428065570749
| 31> S 0.7576808743884492 2.0659025183632704 -0.7281071883845489
| 32> C 2.484850715442682 1.8766348799196142 -0.8624816611859545
| 33> C 3.278484644454535 2.9325499873244807 -1.3354531091914128
| 34> C 4.50217443934266 0.530480979216054 -0.7620701212569463
| 35> C 5.272643796659134 1.6004000776784795 -1.2006086012284185
| 36> H 4.993200749397999 -0.3757586227249357 -0.39022961730898403
| 37> C 4.654242190447161 2.814343340675159 -1.4903058160656126
| 38> H 2.8058572078751056 3.917865991744975 -1.415265462628646
| 39> H 6.389027154715327 1.584773681617975 -0.9840713731697355
| 40> H 5.278396418484664 3.764975789465297 -1.5043649308377405
| 41> C -3.2786828795033554 -2.9330209275080494 1.3339031597700062
| 42> C -4.502370789417779 -0.5309440475738414 0.760549128375958
| 43> C -4.654564910809814 -2.81510724067265 1.4877941764892877
| 44> H -2.804660641297965 -3.915033641168264 1.42457799545474
| 45> C -5.272971763515395 -1.6011763964661003 1.19805612970435
| 46> H -4.991985548669514 0.3786367865300897 0.39969431753139956
| 47> H -5.275541027890446 -3.7582188175197513 1.5265843654993507
| 48> H -6.386183721246078 -1.5780450129615617 1.0061977489736977
| 49> *
| 50>
| 51> % eprnmr
| 52> gtensor true
| 53> Nuclei = all H {aiso,adip,aorb,fgrad,rho}
| 54> Nuclei = all Cu {aiso,adip,aorb,fgrad,rho}
| 55> end
| 56>
| 57>                          ****END OF INPUT****

CARTESIAN COORDINATES (ANGSTROEM)
---------------------------------
  Cu    -0.000020   -0.000004   -0.000000
  S      0.314948   -1.631817   -1.615597
  C      0.569656   -3.099826   -0.711747
  S     -0.315126    1.631783   -1.615597
  C     -0.567661    3.100208   -0.711747
  S      0.314948   -1.631817    1.615597
  C      0.569656   -3.099826    0.711747
  S     -0.315126    1.631783    1.615597
  C     -0.567661    3.100208    0.711747
  C     -0.846358    4.303067    1.378053
  C     -0.846358    4.303067   -1.378053
  C     -1.087420    5.489629   -0.696420
  H     -0.695907    4.321299   -2.463249
  C     -1.087420    5.489629    0.696420
  H     -0.695907    4.321299    2.463249
  H     -0.931950    6.470448   -1.250748
  H     -0.931950    6.470448    1.250748
  C      0.844770   -4.303372   -1.378053
  C      0.844770   -4.303372    1.378053
  C      1.084802   -5.490131   -0.696420
  H      0.705617   -4.319438   -2.463249
  C      1.084802   -5.490131    0.696420
  H      0.705617   -4.319438    2.463249
  H      0.954883   -6.466052   -1.250748
  H      0.954883   -6.466052    1.250748

 Total Charge           Charge          ....   -2
 Multiplicity           Mult            ....    2
 Number of Electrons    NEL             ....  175
 Basis Dimension        Dim             ....  475

ORBITAL ENERGIES
----------------
                 SPIN UP ORBITALS
  NO   OCC          E(Eh)            E(eV)    Irrep
   0   1.0000    -318.183288     -8658.2074    1-A'
   1   1.0000     -88.016669     -2395.0553    1-A"
   2   1.0000     -88.016664     -2395.0552    2-A'
   3   1.0000     -88.016565     -2395.0525    2-A"
   4   1.0000     -88.016549     -2395.0520    3-A'
   5   1.0000     -38.028489     -1034.8078    4-A'
   6   1.0000     -33.531626      -912.4419    3-A"
   7   1.0000     -33.530772      -912.4187    5-A'
   8   1.0000     -33.517023      -912.0446    6-A'
   9   1.0000      -9.835006      -267.6241    7-A'
  10   1.0000      -9.834837      -267.6195    8-A'
  11   1.0000      -9.834675      -267.6151    4-A"
  12   1.0000      -9.834507      -267.6105    5-A"
  13   1.0000      -9.829684      -267.4793    9-A'
  14   1.0000      -9.829255      -267.4676    6-A"
  15   1.0000      -9.828989      -267.4604   10-A'
  16   1.0000      -9.828560      -267.4487    7-A"
  17   1.0000      -9.819262      -267.1957    8-A"
  18   1.0000      -9.819257      -267.1956   11-A'
  19   1.0000      -9.819018      -267.1891    9-A"
  20   1.0000      -9.819013      -267.1889   12-A'
  21   1.0000      -7.585333      -206.4074   10-A"
  22   1.0000      -7.585323      -206.4071   13-A'
  23   1.0000      -7.585233      -206.4047   11-A"
  24   1.0000      -7.585223      -206.4044   14-A'
  25   1.0000      -5.508538      -149.8949   12-A"
  26   1.0000      -5.508537      -149.8949   15-A'
  27   1.0000      -5.508436      -149.8922   13-A"
  28   1.0000      -5.508436      -149.8922   16-A'
  29   1.0000      -5.503230      -149.7505   14-A"
  30   1.0000      -5.503230      -149.7505   17-A'
  31   1.0000      -5.503135      -149.7479   15-A"
  32   1.0000      -5.503135      -149.7479   18-A'
  33   1.0000      -5.501410      -149.7010   16-A"
  34   1.0000      -5.501410      -149.7010   19-A'
  35   1.0000      -5.501307      -149.6982   17-A"
  36   1.0000      -5.501306      -149.6982   20-A'
  37   1.0000      -4.026089      -109.5555   21-A'
  38   1.0000      -2.547527       -69.3217   18-A"
  39   1.0000      -2.545976       -69.2795   22-A'
  40   1.0000      -2.518588       -68.5343   23-A'
  41   1.0000      -0.591230       -16.0882   24-A'
  42   1.0000      -0.591089       -16.0844   25-A'
  43   1.0000      -0.505427       -13.7534   26-A'
  44   1.0000      -0.504298       -13.7227   27-A'
  45   1.0000      -0.491070       -13.3627   19-A"
  46   1.0000      -0.490807       -13.3555   20-A"
  47   1.0000      -0.410535       -11.1712   21-A"
  48   1.0000      -0.407885       -11.0991   22-A"
  49   1.0000      -0.388080       -10.5602   28-A'
  50   1.0000      -0.381304       -10.3758   29-A'
  51   1.0000      -0.322604        -8.7785   30-A'
  52   1.0000      -0.320021        -8.7082   31-A'
  53   1.0000      -0.296990        -8.0815   23-A"
  54   1.0000      -0.293278        -7.9805   24-A"
  55   1.0000      -0.229323        -6.2402   32-A'
  56   1.0000      -0.223914        -6.0930   33-A'
  57   1.0000      -0.191680        -5.2159   34-A'
  58   1.0000      -0.190822        -5.1925   35-A'
  59   1.0000      -0.174648        -4.7524   25-A"
  60   1.0000      -0.172075        -4.6824   26-A"
  61   1.0000      -0.144128        -3.9219   27-A"
  62   1.0000      -0.140512        -3.8235   28-A"
  63   1.0000      -0.135143        -3.6774   36-A'
  64   1.0000      -0.122283        -3.3275   37-A'
  65   1.0000      -0.114385        -3.1126   38-A'
  66   1.0000      -0.109839        -2.9889   39-A'
  67   1.0000      -0.087829        -2.3899   40-A'
  68   1.0000      -0.070982        -1.9315   29-A"
  69   1.0000      -0.067070        -1.8251   30-A"
  70   1.0000      -0.063556        -1.7295   41-A'
  71   1.0000      -0.040398        -1.0993   42-A'
  72   1.0000      -0.037905        -1.0314   43-A'
  73   1.0000      -0.033274        -0.9054   31-A"
  74   1.0000      -0.030236        -0.8228   44-A'
  75   1.0000      -0.027497        -0.7482   32-A"
  76   1.0000      -0.020020        -0.5448   33-A"
  77   1.0000      -0.004130        -0.1124   34-A"
  78   1.0000      -0.002538        -0.0691   45-A'
  79   1.0000      -0.000355        -0.0097   46-A'
  80   1.0000       0.016535         0.4499   47-A'
  81   1.0000       0.017151         0.4667   48-A'
  82   1.0000       0.032785         0.8921   35-A"
  83   1.0000       0.048537         1.3208   36-A"
  84   1.0000       0.050509         1.3744   37-A"
  85   1.0000       0.060305         1.6410   49-A'
  86   1.0000       0.085238         2.3195   50-A'
  87   1.0000       0.103206         2.8084   38-A"
  88   0.0000       0.179718         4.8904   51-A'
  89   0.0000       0.179941         4.8965   52-A'
  90   0.0000       0.196261         5.3405   53-A'
  91   0.0000       0.196368         5.3435   39-A"
  92   0.0000       0.196554         5.3485   40-A"

                 SPIN DOWN ORBITALS
  NO   OCC          E(Eh)            E(eV)    Irrep
   0   1.0000    -318.183114     -8658.2027    1-A'
   1   1.0000     -88.015599     -2395.0262    1-A"
   2   1.0000     -88.015594     -2395.0261    2-A'
   3   1.0000     -88.015494     -2395.0234    2-A"
   4   1.0000     -88.015478     -2395.0229    3-A'
   5   1.0000     -38.012629     -1034.3762    4-A'
   6   1.0000     -33.516476      -912.0297    3-A"
   7   1.0000     -33.515654      -912.0073    5-A'
   8   1.0000     -33.512699      -911.9269    6-A'
   9   1.0000      -9.835120      -267.6272    7-A'
  10   1.0000      -9.834952      -267.6226    8-A'
  11   1.0000      -9.834789      -267.6182    4-A"
  12   1.0000      -9.834621      -267.6136    5-A"
  13   1.0000      -9.829663      -267.4787    9-A'
  14   1.0000      -9.829235      -267.4671    6-A"
  15   1.0000      -9.828968      -267.4598   10-A'
  16   1.0000      -9.828539      -267.4482    7-A"
  17   1.0000      -9.819200      -267.1940    8-A"
  18   1.0000      -9.819195      -267.1939   11-A'
  19   1.0000      -9.818956      -267.1874    9-A"
  20   1.0000      -9.818952      -267.1873   12-A'
  21   1.0000      -7.584601      -206.3875   10-A"
  22   1.0000      -7.584592      -206.3873   13-A'
  23   1.0000      -7.584502      -206.3848   11-A"
  24   1.0000      -7.584492      -206.3845   14-A'
  25   1.0000      -5.507607      -149.8696   12-A"
  26   1.0000      -5.507606      -149.8696   15-A'
  27   1.0000      -5.507505      -149.8668   13-A"
  28   1.0000      -5.507504      -149.8668   16-A'
  29   1.0000      -5.500993      -149.6896   14-A"
  30   1.0000      -5.500993      -149.6896   17-A'
  31   1.0000      -5.500897      -149.6870   15-A"
  32   1.0000      -5.500897      -149.6870   18-A'
  33   1.0000      -5.500593      -149.6787   16-A"
  34   1.0000      -5.500593      -149.6787   19-A'
  35   1.0000      -5.500490      -149.6759   17-A"
  36   1.0000      -5.500489      -149.6759   20-A'
  37   1.0000      -3.992388      -108.6384   21-A'
  38   1.0000      -2.506880       -68.2157   22-A'
  39   1.0000      -2.505502       -68.1782   18-A"
  40   1.0000      -2.503942       -68.1357   23-A'
  41   1.0000      -0.590859       -16.0781   24-A'
  42   1.0000      -0.590727       -16.0745   25-A'
  43   1.0000      -0.504078       -13.7167   26-A'
  44   1.0000      -0.503024       -13.6880   27-A'
  45   1.0000      -0.489989       -13.3333   19-A"
  46   1.0000      -0.489751       -13.3268   20-A"
  47   1.0000      -0.406525       -11.0621   21-A"
  48   1.0000      -0.403772       -10.9872   22-A"
  49   1.0000      -0.384835       -10.4719   28-A'
  50   1.0000      -0.378113       -10.2890   29-A'
  51   1.0000      -0.321422        -8.7463   30-A'
  52   1.0000      -0.318522        -8.6674   31-A'
  53   1.0000      -0.295186        -8.0324   23-A"
  54   1.0000      -0.291029        -7.9193   24-A"
  55   1.0000      -0.228753        -6.2247   32-A'
  56   1.0000      -0.223241        -6.0747   33-A'
  57   1.0000      -0.190701        -5.1892   34-A'
  58   1.0000      -0.189926        -5.1682   35-A'
  59   1.0000      -0.174175        -4.7396   25-A"
  60   1.0000      -0.171338        -4.6623   26-A"
  61   1.0000      -0.143392        -3.9019   27-A"
  62   1.0000      -0.138805        -3.7771   28-A"
  63   1.0000      -0.134072        -3.6483   36-A'
  64   1.0000      -0.121808        -3.3146   37-A'
  65   1.0000      -0.113970        -3.1013   38-A'
  66   1.0000      -0.109218        -2.9720   39-A'
  67   1.0000      -0.086431        -2.3519   40-A'
  68   1.0000      -0.069572        -1.8931   29-A"
  69   1.0000      -0.061870        -1.6836   41-A'
  70   1.0000      -0.052836        -1.4377   30-A"
  71   1.0000      -0.038085        -1.0363   42-A'
  72   1.0000      -0.037005        -1.0070   43-A'
  73   1.0000      -0.024091        -0.6555   31-A"
  74   1.0000      -0.023619        -0.6427   44-A'
  75   1.0000      -0.019133        -0.5206   32-A"
  76   1.0000      -0.004450        -0.1211   33-A"
  77   1.0000       0.005438         0.1480   34-A"
  78   1.0000       0.008313         0.2262   45-A'
  79   1.0000       0.011830         0.3219   46-A'
  80   1.0000       0.023993         0.6529   47-A'
  81   1.0000       0.032244         0.8774   48-A'
  82   1.0000       0.041062         1.1173   35-A"
  83   1.0000       0.051403         1.3987   36-A"
  84   1.0000       0.056102         1.5266   37-A"
  85   1.0000       0.062160         1.6915   49-A'
  86   1.0000       0.089420         2.4333   50-A'
  87   0.0000       0.136197         3.7061   38-A"
  88   0.0000       0.180596         4.9143   51-A'
  89   0.0000       0.180826         4.9205   52-A'
  90   0.0000       0.196282         5.3411   53-A'
  91   0.0000       0.197847         5.3837   39-A"

MULLIKEN ATOMIC CHARGES AND SPIN POPULATIONS
--------------------------------------------
   0 Cu:    0.141118    0.374968
   1 S :   -0.420335    0.163047
   2 C :    0.028061   -0.007483
   3 S :   -0.419680    0.162921
   4 C :    0.028795   -0.007474
   5 S :   -0.420335    0.163047
   6 C :    0.028061   -0.007483
   7 S :   -0.419680    0.162921
   8 C :    0.028795   -0.007474
   9 C :   -0.077831   -0.001229
  10 C :   -0.077831   -0.001229
  11 C :   -0.121012   -0.001133
  12 H :    0.060446    0.001902
  13 C :   -0.121012   -0.001133
  14 H :    0.060446    0.001902
  15 H :   -0.006156    0.001220
  16 H :   -0.006156    0.001220
  17 C :   -0.079512   -0.001286
  18 C :   -0.079512   -0.001286
  19 C :   -0.123202   -0.001092
  20 H :    0.061151    0.001922
  21 C :   -0.123202   -0.001092
  22 H :    0.061151    0.001922
  23 H :   -0.001284    0.001200
  24 H :   -0.001284    0.001200
Sum of atomic charges         :   -2.0000000

LOEWDIN ATOMIC CHARGES AND SPIN POPULATIONS
-------------------------------------------
   0 Cu:   -0.893418    0.441800
   1 S :    0.010871    0.124209
   2 C :   -0.039065    0.005133
   3 S :    0.011017    0.124138
   4 C :   -0.039214    0.005124
   5 S :    0.010871    0.124209
   6 C :   -0.039065    0.005133
   7 S :    0.011017    0.124138
   8 C :   -0.039214    0.005124
   9 C :    0.294211    0.004072
  10 C :    0.294211    0.004072
  11 C :    0.277965   -0.000268
  12 H :   -0.441656    0.006162
  13 C :    0.277965   -0.000268
  14 H :   -0.441656    0.006162
  15 H :   -0.379169    0.000282
  16 H :   -0.379169    0.000282
  17 C :    0.296018    0.004045
  18 C :    0.296018    0.004045
  19 C :    0.282709   -0.000246
  20 H :   -0.442411    0.006180
  21 C :    0.282709   -0.000246
  22 H :   -0.442411    0.006180
  23 H :   -0.384567    0.000269
  24 H :   -0.384567    0.000269

  Mayer bond orders larger than 0.100000
B(  0-Cu,  1-S ) :   0.7014 B(  0-Cu,  3-S ) :   0.7011 B(  0-Cu,  5-S ) :   0.7014
B(  0-Cu,  7-S ) :   0.7011 B(  1-S ,  2-C ) :   1.1856 B(  2-C ,  6-C ) :   1.2404
B(  2-C , 17-C ) :   1.3190 B(  3-S ,  4-C ) :   1.1858 B(  4-C ,  8-C ) :   1.2398
B(  4-C , 10-C ) :   1.3190 B(  5-S ,  6-C ) :   1.1856 B(  6-C , 18-C ) :   1.3190
B(  7-S ,  8-C ) :   1.1858 B(  8-C ,  9-C ) :   1.3190 B(  9-C , 13-C ) :   1.3602
B(  9-C , 14-H ) :   0.9726 B( 10-C , 11-C ) :   1.3602 B( 10-C , 12-H ) :   0.9726
B( 11-C , 13-C ) :   1.3350 B( 11-C , 15-H ) :   1.0086 B( 13-C , 16-H ) :   1.0086
B( 17-C , 19-C ) :   1.3605 B( 17-C , 20-H ) :   0.9721 B( 18-C , 21-C ) :   1.3605
B( 18-C , 22-H ) :   0.9721 B( 19-C , 21-C ) :   1.3354 B( 19-C , 23-H ) :   1.0065
B( 21-C , 24-H ) :   1.0065

FINAL SINGLE POINT ENERGY     -3686.906146969739

DIPOLE MOMENT
-------------
                                X             Y             Z
Electronic contribution:     -0.04588      -0.03311      -0.00000
Nuclear contribution   :      0.06136       0.01176       0.00000
                        -----------------------------------------
Total Dipole Moment    :      0.01549      -0.02135      -0.00000
                        -----------------------------------------
Magnitude (a.u.)       :      0.02638
Magnitude (Debye)      :      0.06704

Rotational constants in cm-1:     0.033389     0.004803     0.004200
Rotational constants in MHz :  1000.980839   143.997393   125.919615

                             ****ORCA TERMINATED NORMALLY****
TOTAL RUN TIME: 0 days 5 hours 16 minutes 19 seconds 581 msec
