                         Program Version 5.0.4 -  RELEASE  -
|  1> ! RIJCOSX nofrozencore ReducedPop printbasis
|  2> ! M06L ano-rcc-dzp autoaux
|  3>
|  4> %maxcore 5000
|  5> %basis
|  6> PCDTrimBas overlap
|  7> PCDTrimAuxJ Coulomb
|  8> PCDTrimAuxJK Coulomb
|  9> PCDTrimAuxC Coulomb
| 10> PCDThresh -1
| 11> end
| 12>
| 13> %basis
| 14> newgto Cu "ano-rcc-tzp" end
| 15> newgto S "ano-rcc-tzp" end
| 16> end
| 17>
| 18> %pal
| 19> nprocs 12
| 20> end
| 21>
| 22> % sym SymThresh 1e-2 end
| 23> * xyz -2 2
| 24> Cu -1.6680105662512946e-07 1.7819050561940453e-06 -8.927439600573261e-07
| 25> S 1.4660137376485474 1.6597488465345407 -0.6842429701516833
| 26> C 0.4441518794937006 2.887595547119826 -1.3817936075043784
| 27> S 1.7432269642629314 -1.3016155402983514 0.7994168763676905
| 28> C 0.9701410019403243 -2.7302810649027958 1.4328025488267664
| 29> S -1.743211020091589 1.3016596316832747 -0.7994371429208197
| 30> C -0.9695085792514628 2.728349460342623 -1.4317937766197089
| 31> S -1.4659906210317701 -1.6597813770670335 0.6842610915888366
| 32> C -0.44387641894386165 -2.8855851386785645 1.3808285042017285
| 33> C -1.034037100603683 -4.062818993018875 1.9070022885390625
| 34> C 1.7032901587928415 -3.7586166017449605 2.005864564701122
| 35> C 1.1522020256190886 -4.898438249722095 2.5171624794893175
| 36> H 3.168049259826856 -3.582974257479913 2.052431797226835
| 37> C -0.22901362665308103 -5.0744438992792995 2.4783639793725403
| 38> H -1.7264671361959558 -4.133483607702328 1.8788984046202388
| 39> H 1.8703180755484403 -5.784875293449933 3.0189735853826756
| 40> H -0.636447186556515 -5.836971086573562 2.8168947466397363
| 41> C 0.9841998481861651 4.0582812668292965 -1.9092950969700115
| 42> C -1.7530936225914693 3.7520561626398385 -2.007158115012001
| 43> C 0.22237963079284537 5.056072038394502 -2.4699185055814508
| 44> H 2.295636132635857 4.193534572109829 -1.8567653765778591
| 45> C -1.1620424849152706 4.914856498979518 -2.5261424782176753
| 46> H -2.5976933828035316 3.6500833591983337 -2.0336670836265585
| 47> H 0.7358564595074109 6.031458625969441 -2.9036488949907553
| 48> H -1.7377279608383078 5.617339687351411 -2.9244164794870597
| 49> *
| 50>
| 51> % eprnmr
| 52> gtensor true
| 53> Nuclei = all H {aiso,adip,aorb,fgrad,rho}
| 54> Nuclei = all Cu {aiso,adip,aorb,fgrad,rho}
| 55> end
| 56>
| 57>                          ****END OF INPUT****

CARTESIAN COORDINATES (ANGSTROEM)
---------------------------------
  Cu    -0.000000    0.000002    0.000000
  S      1.434771    1.820325    0.000000
  C      0.381544    3.209245    0.000000
  S      1.779062   -1.485614    0.000000
  C      1.034784   -3.062312    0.000000
  S     -1.779047    1.485663    0.000000
  C     -1.034106    3.060146    0.000000
  S     -1.434747   -1.820362    0.000000
  C     -0.381312   -3.207011    0.000000
  C     -0.947551   -4.507165    0.000000
  C      1.793721   -4.223086    0.000000
  C      1.265874   -5.482330    0.000000
  H      3.260304   -4.056739    0.000000
  C     -0.116831   -5.650758    0.000000
  H     -1.641119   -4.572020    0.000000
  H      2.006557   -6.484659    0.000000
  H     -0.508868   -6.492399    0.000000
  C      0.897620    4.503108    0.000000
  C     -1.843573    4.216774    0.000000
  C      0.110580    5.630416    0.000000
  H      2.211180    4.627520    0.000000
  C     -1.276119    5.500825    0.000000
  H     -2.689209    4.120082    0.000000
  H      0.604333    6.707156    0.000000
  H     -1.869714    6.295283    0.000000

 Total Charge           Charge          ....   -2
 Multiplicity           Mult            ....    2
 Number of Electrons    NEL             ....  175
 Basis Dimension        Dim             ....  475

ORBITAL ENERGIES
----------------
                 SPIN UP ORBITALS
  NO   OCC          E(Eh)            E(eV)    Irrep
   0   1.0000    -318.182829     -8658.1950    1-A'
   1   1.0000     -88.016658     -2395.0550    2-A'
   2   1.0000     -88.016218     -2395.0430    3-A'
   3   1.0000     -88.015958     -2395.0360    4-A'
   4   1.0000     -88.015619     -2395.0267    5-A'
   5   1.0000     -38.028044     -1034.7957    6-A'
   6   1.0000     -33.531186      -912.4300    7-A'
   7   1.0000     -33.530343      -912.4070    8-A'
   8   1.0000     -33.516549      -912.0317    1-A"
   9   1.0000      -9.847209      -267.9562    9-A'
  10   1.0000      -9.840505      -267.7738   10-A'
  11   1.0000      -9.836982      -267.6779   11-A'
  12   1.0000      -9.836492      -267.6646   12-A'
  13   1.0000      -9.835602      -267.6403   13-A'
  14   1.0000      -9.834502      -267.6104   14-A'
  15   1.0000      -9.834028      -267.5975   15-A'
  16   1.0000      -9.833860      -267.5929   16-A'
  17   1.0000      -9.816583      -267.1228   17-A'
  18   1.0000      -9.812831      -267.0207   18-A'
  19   1.0000      -9.796986      -266.5896   19-A'
  20   1.0000      -9.792479      -266.4669   20-A'
  21   1.0000      -7.585165      -206.4028   21-A'
  22   1.0000      -7.584978      -206.3978   22-A'
  23   1.0000      -7.584542      -206.3859   23-A'
  24   1.0000      -7.584384      -206.3816   24-A'
  25   1.0000      -5.508545      -149.8951   25-A'
  26   1.0000      -5.508132      -149.8839   26-A'
  27   1.0000      -5.507820      -149.8754   27-A'
  28   1.0000      -5.507560      -149.8683   28-A'
  29   1.0000      -5.503026      -149.7449   29-A'
  30   1.0000      -5.502885      -149.7411   30-A'
  31   1.0000      -5.502458      -149.7295   31-A'
  32   1.0000      -5.502285      -149.7248   32-A'
  33   1.0000      -5.501167      -149.6944    2-A"
  34   1.0000      -5.501080      -149.6920    3-A"
  35   1.0000      -5.500569      -149.6781    4-A"
  36   1.0000      -5.500471      -149.6754    5-A"
  37   1.0000      -4.025640      -109.5432   33-A'
  38   1.0000      -2.547091       -69.3099   34-A'
  39   1.0000      -2.545549       -69.2679   35-A'
  40   1.0000      -2.518094       -68.5208    6-A"
  41   1.0000      -0.595843       -16.2137   36-A'
  42   1.0000      -0.592309       -16.1175   37-A'
  43   1.0000      -0.510558       -13.8930   38-A'
  44   1.0000      -0.506410       -13.7801   39-A'
  45   1.0000      -0.504452       -13.7268   40-A'
  46   1.0000      -0.496219       -13.5028   41-A'
  47   1.0000      -0.415542       -11.3075   42-A'
  48   1.0000      -0.411138       -11.1876   43-A'
  49   1.0000      -0.397087       -10.8053   44-A'
  50   1.0000      -0.388176       -10.5628   45-A'
  51   1.0000      -0.345130        -9.3915   46-A'
  52   1.0000      -0.332259        -9.0412   47-A'
  53   1.0000      -0.300773        -8.1845   48-A'
  54   1.0000      -0.297087        -8.0842   49-A'
  55   1.0000      -0.238356        -6.4860   50-A'
  56   1.0000      -0.232168        -6.3176   51-A'
  57   1.0000      -0.193668        -5.2700   52-A'
  58   1.0000      -0.191551        -5.2124   53-A'
  59   1.0000      -0.187426        -5.1001   54-A'
  60   1.0000      -0.180869        -4.9217   55-A'
  61   1.0000      -0.144976        -3.9450   56-A'
  62   1.0000      -0.141175        -3.8416   57-A'
  63   1.0000      -0.129247        -3.5170   58-A'
  64   1.0000      -0.119816        -3.2603    7-A"
  65   1.0000      -0.118540        -3.2256    8-A"
  66   1.0000      -0.105873        -2.8809   59-A'
  67   1.0000      -0.078703        -2.1416   60-A'
  68   1.0000      -0.070472        -1.9176   61-A'
  69   1.0000      -0.067254        -1.8301   62-A'
  70   1.0000      -0.058746        -1.5986   63-A'
  71   1.0000      -0.040919        -1.1135    9-A"
  72   1.0000      -0.039184        -1.0663   10-A"
  73   1.0000      -0.032582        -0.8866   64-A'
  74   1.0000      -0.030664        -0.8344   65-A'
  75   1.0000      -0.027895        -0.7591   11-A"
  76   1.0000      -0.021043        -0.5726   12-A"
  77   1.0000      -0.004455        -0.1212   13-A"
  78   1.0000      -0.002132        -0.0580   66-A'
  79   1.0000      -0.000153        -0.0042   14-A"
  80   1.0000       0.016929         0.4606   67-A'
  81   1.0000       0.017499         0.4762   68-A'
  82   1.0000       0.033581         0.9138   69-A'
  83   1.0000       0.048469         1.3189   15-A"
  84   1.0000       0.050738         1.3806   16-A"
  85   1.0000       0.060882         1.6567   17-A"
  86   1.0000       0.085987         2.3398   18-A"
  87   1.0000       0.103746         2.8231   70-A'
  88   0.0000       0.174710         4.7541   71-A'
  89   0.0000       0.179374         4.8810   72-A'
  90   0.0000       0.193225         5.2579   73-A'
  91   0.0000       0.195505         5.3200   74-A'
  92   0.0000       0.198851         5.4110   19-A"

                 SPIN DOWN ORBITALS
  NO   OCC          E(Eh)            E(eV)    Irrep
   0   1.0000    -318.182655     -8658.1902    1-A'
   1   1.0000     -88.015575     -2395.0256    2-A'
   2   1.0000     -88.015157     -2395.0142    3-A'
   3   1.0000     -88.014876     -2395.0065    4-A'
   4   1.0000     -88.014556     -2394.9978    5-A'
   5   1.0000     -38.012167     -1034.3636    6-A'
   6   1.0000     -33.516018      -912.0172    7-A'
   7   1.0000     -33.515208      -911.9952    8-A'
   8   1.0000     -33.512223      -911.9140    1-A"
   9   1.0000      -9.847157      -267.9548    9-A'
  10   1.0000      -9.840481      -267.7731   10-A'
  11   1.0000      -9.836924      -267.6763   11-A'
  12   1.0000      -9.836605      -267.6676   12-A'
  13   1.0000      -9.835716      -267.6434   13-A'
  14   1.0000      -9.834615      -267.6135   14-A'
  15   1.0000      -9.834141      -267.6006   15-A'
  16   1.0000      -9.833837      -267.5923   16-A'
  17   1.0000      -9.816564      -267.1223   17-A'
  18   1.0000      -9.812815      -267.0203   18-A'
  19   1.0000      -9.796932      -266.5881   19-A'
  20   1.0000      -9.792424      -266.4654   20-A'
  21   1.0000      -7.584424      -206.3827   21-A'
  22   1.0000      -7.584254      -206.3781   22-A'
  23   1.0000      -7.583805      -206.3658   23-A'
  24   1.0000      -7.583655      -206.3618   24-A'
  25   1.0000      -5.507615      -149.8698   25-A'
  26   1.0000      -5.507211      -149.8588   26-A'
  27   1.0000      -5.506888      -149.8501   27-A'
  28   1.0000      -5.506633      -149.8431   28-A'
  29   1.0000      -5.500740      -149.6828   29-A'
  30   1.0000      -5.500668      -149.6808   30-A'
  31   1.0000      -5.500345      -149.6720    2-A"
  32   1.0000      -5.500271      -149.6700    3-A"
  33   1.0000      -5.500186      -149.6677   31-A'
  34   1.0000      -5.500058      -149.6642   32-A'
  35   1.0000      -5.499749      -149.6558    4-A"
  36   1.0000      -5.499660      -149.6533    5-A"
  37   1.0000      -3.991901      -108.6251   33-A'
  38   1.0000      -2.506376       -68.2020    6-A"
  39   1.0000      -2.505026       -68.1652   34-A'
  40   1.0000      -2.503458       -68.1226   35-A'
  41   1.0000      -0.595504       -16.2045   36-A'
  42   1.0000      -0.591955       -16.1079   37-A'
  43   1.0000      -0.509519       -13.8647   38-A'
  44   1.0000      -0.505166       -13.7463   39-A'
  45   1.0000      -0.503492       -13.7007   40-A'
  46   1.0000      -0.495288       -13.4775   41-A'
  47   1.0000      -0.411322       -11.1926   42-A'
  48   1.0000      -0.406972       -11.0743   43-A'
  49   1.0000      -0.394622       -10.7382   44-A'
  50   1.0000      -0.385385       -10.4869   45-A'
  51   1.0000      -0.343127        -9.3370   46-A'
  52   1.0000      -0.330569        -8.9952   47-A'
  53   1.0000      -0.298956        -8.1350   48-A'
  54   1.0000      -0.294885        -8.0242   49-A'
  55   1.0000      -0.237704        -6.4682   50-A'
  56   1.0000      -0.231398        -6.2967   51-A'
  57   1.0000      -0.192775        -5.2457   52-A'
  58   1.0000      -0.190620        -5.1870   53-A'
  59   1.0000      -0.186595        -5.0775   54-A'
  60   1.0000      -0.180000        -4.8981   55-A'
  61   1.0000      -0.144245        -3.9251   56-A'
  62   1.0000      -0.139774        -3.8034   57-A'
  63   1.0000      -0.127785        -3.4772   58-A'
  64   1.0000      -0.119647        -3.2558    7-A"
  65   1.0000      -0.118360        -3.2208    8-A"
  66   1.0000      -0.104698        -2.8490   59-A'
  67   1.0000      -0.077348        -2.1047   60-A'
  68   1.0000      -0.069016        -1.8780   61-A'
  69   1.0000      -0.058214        -1.5841   62-A'
  70   1.0000      -0.051835        -1.4105   63-A'
  71   1.0000      -0.039139        -1.0650    9-A"
  72   1.0000      -0.038091        -1.0365   10-A"
  73   1.0000      -0.024860        -0.6765   11-A"
  74   1.0000      -0.023855        -0.6491   64-A'
  75   1.0000      -0.020249        -0.5510   12-A"
  76   1.0000      -0.003772        -0.1027   65-A'
  77   1.0000       0.005252         0.1429   13-A"
  78   1.0000       0.008647         0.2353   66-A'
  79   1.0000       0.012151         0.3306   14-A"
  80   1.0000       0.024302         0.6613   67-A'
  81   1.0000       0.032736         0.8908   68-A'
  82   1.0000       0.041877         1.1395   69-A'
  83   1.0000       0.051347         1.3972   15-A"
  84   1.0000       0.056356         1.5335   16-A"
  85   1.0000       0.062748         1.7075   17-A"
  86   1.0000       0.090177         2.4538   18-A"
  87   0.0000       0.136777         3.7219   70-A'
  88   0.0000       0.175799         4.7837   71-A'
  89   0.0000       0.180538         4.9127   72-A'
  90   0.0000       0.193864         5.2753   73-A'
  91   0.0000       0.196919         5.3584   74-A'

MULLIKEN ATOMIC CHARGES AND SPIN POPULATIONS
--------------------------------------------
   0 Cu:    0.142785    0.375413
   1 S :   -0.406986    0.164348
   2 C :    0.036430   -0.007356
   3 S :   -0.397848    0.163721
   4 C :    0.038621   -0.007054
   5 S :   -0.440485    0.161972
   6 C :   -0.009342   -0.007481
   7 S :   -0.442004    0.161402
   8 C :   -0.019206   -0.007489
   9 C :   -0.838404   -0.002090
  10 C :   -0.008422   -0.000481
  11 C :   -0.084447   -0.001097
  12 H :   -0.109600    0.001495
  13 C :   -0.318101   -0.000714
  14 H :    0.932773    0.002253
  15 H :   -0.083639    0.001622
  16 H :    0.257210    0.000310
  17 C :   -0.016281   -0.000492
  18 C :   -0.370507   -0.002505
  19 C :   -0.089767   -0.001043
  20 H :   -0.072373    0.001212
  21 C :   -0.241456   -0.000741
  22 H :    0.440956    0.002711
  23 H :   -0.050214    0.001458
  24 H :    0.150304    0.000626
Sum of atomic charges         :   -2.0000000

LOEWDIN ATOMIC CHARGES AND SPIN POPULATIONS
-------------------------------------------
   0 Cu:   -0.893120    0.442192
   1 S :   -0.002310    0.125047
   2 C :   -0.067513    0.005263
   3 S :   -0.010407    0.124891
   4 C :   -0.079599    0.005391
   5 S :    0.022236    0.123644
   6 C :    0.007177    0.005182
   7 S :    0.030144    0.123521
   8 C :    0.045054    0.005275
   9 C :    0.652257    0.004032
  10 C :    0.162730    0.003473
  11 C :    0.228224   -0.000083
  12 H :   -0.204574    0.006566
  13 C :    0.474712   -0.000248
  14 H :   -0.975849    0.005290
  15 H :   -0.295905    0.000451
  16 H :   -0.582262    0.000033
  17 C :    0.201315    0.003764
  18 C :    0.488854    0.003971
  19 C :    0.251649   -0.000094
  20 H :   -0.272590    0.006474
  21 C :    0.400039   -0.000186
  22 H :   -0.731385    0.005717
  23 H :   -0.338231    0.000327
  24 H :   -0.510646    0.000106

  Mayer bond orders larger than 0.100000
B(  0-Cu,  1-S ) :   0.7039 B(  0-Cu,  3-S ) :   0.7036 B(  0-Cu,  5-S ) :   0.7000
B(  0-Cu,  7-S ) :   0.6985 B(  1-S ,  2-C ) :   1.1820 B(  2-C ,  6-C ) :   1.2413
B(  2-C , 17-C ) :   1.3196 B(  3-S ,  4-C ) :   1.1813 B(  4-C ,  8-C ) :   1.2371
B(  4-C , 10-C ) :   1.3288 B(  5-S ,  6-C ) :   1.1914 B(  6-C , 18-C ) :   1.3695
B(  7-S ,  8-C ) :   1.1969 B(  8-C ,  9-C ) :   1.4148 B(  9-C , 13-C ) :   1.4964
B(  9-C , 14-H ) :  -0.1589 B( 10-C , 11-C ) :   1.3701 B( 10-C , 12-H ) :   0.9618
B( 11-C , 13-C ) :   1.3610 B( 11-C , 15-H ) :   1.0122 B( 13-C , 16-H ) :   0.8312
B( 17-C , 19-C ) :   1.3591 B( 17-C , 20-H ) :   0.9902 B( 18-C , 21-C ) :   1.4310
B( 18-C , 22-H ) :   0.6401 B( 19-C , 21-C ) :   1.3466 B( 19-C , 23-H ) :   1.0128
B( 21-C , 24-H ) :   0.9193

FINAL SINGLE POINT ENERGY     -3686.529851234234

DIPOLE MOMENT
-------------
                                X             Y             Z
Electronic contribution:     -1.90441      -0.13844       0.00000
Nuclear contribution   :      1.28855       0.13530       0.00000
                        -----------------------------------------
Total Dipole Moment    :     -0.61586      -0.00315       0.00000
                        -----------------------------------------
Magnitude (a.u.)       :      0.61587
Magnitude (Debye)      :      1.56542

Rotational constants in cm-1:     0.033396     0.004804     0.004200
Rotational constants in MHz :  1001.183578   144.015734   125.904885

                             ****ORCA TERMINATED NORMALLY****
TOTAL RUN TIME: 0 days 6 hours 40 minutes 1 seconds 349 msec
