                         Program Version 5.0.4 -  RELEASE  -
|  1> ! RIJCOSX nofrozencore ReducedPop printbasis
|  2> ! M06L ano-rcc-dzp autoaux
|  3>
|  4> %maxcore 5000
|  5> %basis
|  6> PCDTrimBas overlap
|  7> PCDTrimAuxJ Coulomb
|  8> PCDTrimAuxJK Coulomb
|  9> PCDTrimAuxC Coulomb
| 10> PCDThresh -1
| 11> end
| 12>
| 13> %basis
| 14> newgto Cu "ano-rcc-tzp" end
| 15> newgto S "ano-rcc-tzp" end
| 16> end
| 17>
| 18> %pal
| 19> nprocs 12
| 20> end
| 21>
| 22> % sym SymThresh 1e-2 end
| 23> * xyz -2 2
| 24> Cu 3.687205224654088e-05 3.729570146327473e-05 0.00013518314397694206
| 25> S -2.215161937395378 0.4946461613094426 0.46963200633111496
| 26> C -2.391220328741655 2.172702610380703 0.03410697394271998
| 27> S -0.2774074488123961 -2.1975194877971376 0.6827313303095178
| 28> C 1.2865647185720754 -2.9295350838715435 0.4495101800774929
| 29> S 0.2780457167512845 2.1981650892500535 -0.6803912634723998
| 30> C -1.2928446647947 2.9231829828830125 -0.47253420024062776
| 31> S 2.215800459624282 -0.4940003026447924 -0.46729100719645217
| 32> C 2.3849477569294795 -2.1790472522289415 -0.05710395747705949
| 33> C 3.6259196051872276 -2.8194590606361825 -0.18746396899254528
| 34> C 1.4992787831397856 -4.272519203918916 0.7934209986986422
| 35> C 2.7225518311834223 -4.902395988014284 0.5972321066463491
| 36> H 0.6194766341892232 -4.873010987751885 1.0455898867777826
| 37> C 3.7972568918019234 -4.168094728920988 0.10143581343815457
| 38> H 4.420657703827143 -2.275845951350066 -0.7083026612989952
| 39> H 2.8579616200400397 -5.932315238420678 0.9226710836576122
| 40> H 4.788296407295968 -4.613332736361354 0.03296302374136582
| 41> C -3.606669267952515 2.8389291790462012 0.2580389575256629
| 42> C -1.4800466494598377 4.291973708885047 -0.7229086029044318
| 43> C -3.807660150625773 4.157571939661926 -0.13957703828809026
| 44> H -4.5265885670312995 2.1686979731634204 0.3199308116286874
| 45> C -2.732931695325847 4.891896862234771 -0.6352875601221752
| 46> H -0.7252392318849555 4.766034608027921 -1.4333427552801377
| 47> H -4.734478222862649 4.667769529430186 0.16435251371496912
| 48> H -2.804349664809285 5.9865434327730505 -0.7261116395100033
| 49> *
| 50>
| 51> % eprnmr
| 52> gtensor true
| 53> Nuclei = all H {aiso,adip,aorb,fgrad,rho}
| 54> Nuclei = all Cu {aiso,adip,aorb,fgrad,rho}
| 55> end
| 56>
| 57>                          ****END OF INPUT****

CARTESIAN COORDINATES (ANGSTROEM)
---------------------------------
  Cu     0.000027    0.000142    0.000000
  S      1.632913   -0.309216   -1.615597
  C      3.092724   -0.606803   -0.711747
  S     -1.632443    0.311682   -1.615597
  C     -3.097342    0.582558   -0.711747
  S      1.632913   -0.309216    1.615597
  C      3.092724   -0.606803    0.711747
  S     -1.632443    0.311682    1.615597
  C     -3.097342    0.582558    0.711747
  C     -4.303889    0.842193    1.378053
  C     -4.303889    0.842193   -1.378053
  C     -5.499580    1.035412   -0.696420
  H     -4.320480    0.699405   -2.463249
  C     -5.499580    1.035412    0.696420
  H     -4.320480    0.699405    2.463249
  H     -6.403385    1.282170   -1.250748
  H     -6.403385    1.282170    1.250748
  C      4.318047   -0.767863   -1.378053
  C      4.318047   -0.767863    1.378053
  C      5.491934   -1.075556   -0.696420
  H      4.242600   -1.108298   -2.463249
  C      5.491934   -1.075556    0.696420
  H      4.242600   -1.108298    2.463249
  H      6.442909   -1.074662   -1.250749
  H      6.442909   -1.074662    1.250749

 Total Charge           Charge          ....   -2
 Multiplicity           Mult            ....    2
 Number of Electrons    NEL             ....  175
 Basis Dimension        Dim             ....  475

ORBITAL ENERGIES
----------------
                 SPIN UP ORBITALS
  NO   OCC          E(Eh)            E(eV)    Irrep
   0   1.0000    -318.182766     -8658.1932    1-A'
   1   1.0000     -88.016547     -2395.0520    1-A"
   2   1.0000     -88.016538     -2395.0518    2-A'
   3   1.0000     -88.015702     -2395.0290    2-A"
   4   1.0000     -88.015691     -2395.0287    3-A'
   5   1.0000     -38.027993     -1034.7943    4-A'
   6   1.0000     -33.531121      -912.4282    3-A"
   7   1.0000     -33.530279      -912.4053    5-A'
   8   1.0000     -33.516526      -912.0311    6-A'
   9   1.0000      -9.835236      -267.6304    7-A'
  10   1.0000      -9.834906      -267.6214    4-A"
  11   1.0000      -9.833772      -267.5905    8-A'
  12   1.0000      -9.833442      -267.5816    5-A"
  13   1.0000      -9.825155      -267.3561    9-A'
  14   1.0000      -9.824728      -267.3444    6-A"
  15   1.0000      -9.824660      -267.3426   10-A'
  16   1.0000      -9.824230      -267.3309    7-A"
  17   1.0000      -9.820910      -267.2405    8-A"
  18   1.0000      -9.820906      -267.2404   11-A'
  19   1.0000      -9.817913      -267.1590    9-A"
  20   1.0000      -9.817908      -267.1589   12-A'
  21   1.0000      -7.585206      -206.4040   10-A"
  22   1.0000      -7.585197      -206.4037   13-A'
  23   1.0000      -7.584395      -206.3819   11-A"
  24   1.0000      -7.584386      -206.3816   14-A'
  25   1.0000      -5.508410      -149.8915   12-A"
  26   1.0000      -5.508410      -149.8914   15-A'
  27   1.0000      -5.507592      -149.8692   13-A"
  28   1.0000      -5.507591      -149.8692   16-A'
  29   1.0000      -5.503087      -149.7466   14-A"
  30   1.0000      -5.503087      -149.7466   17-A'
  31   1.0000      -5.502311      -149.7255   15-A"
  32   1.0000      -5.502310      -149.7255   18-A'
  33   1.0000      -5.501311      -149.6983   16-A"
  34   1.0000      -5.501310      -149.6983   19-A'
  35   1.0000      -5.500458      -149.6751   17-A"
  36   1.0000      -5.500457      -149.6751   20-A'
  37   1.0000      -4.025598      -109.5421   21-A'
  38   1.0000      -2.547025       -69.3081   18-A"
  39   1.0000      -2.545493       -69.2664   22-A'
  40   1.0000      -2.518099       -68.5210   23-A'
  41   1.0000      -0.590419       -16.0661   24-A'
  42   1.0000      -0.590298       -16.0628   25-A'
  43   1.0000      -0.505589       -13.7578   26-A'
  44   1.0000      -0.504486       -13.7278   27-A'
  45   1.0000      -0.490480       -13.3466   19-A"
  46   1.0000      -0.488771       -13.3001   20-A"
  47   1.0000      -0.410512       -11.1706   21-A"
  48   1.0000      -0.407880       -11.0990   22-A"
  49   1.0000      -0.388601       -10.5744   28-A'
  50   1.0000      -0.381835       -10.3903   29-A'
  51   1.0000      -0.320968        -8.7340   30-A'
  52   1.0000      -0.315665        -8.5897   31-A'
  53   1.0000      -0.299956        -8.1622   23-A"
  54   1.0000      -0.295954        -8.0533   24-A"
  55   1.0000      -0.231406        -6.2969   32-A'
  56   1.0000      -0.224176        -6.1001   33-A'
  57   1.0000      -0.190705        -5.1893   34-A'
  58   1.0000      -0.189673        -5.1613   35-A'
  59   1.0000      -0.175531        -4.7764   25-A"
  60   1.0000      -0.167198        -4.5497   26-A"
  61   1.0000      -0.145083        -3.9479   27-A"
  62   1.0000      -0.138464        -3.7678   28-A"
  63   1.0000      -0.136219        -3.7067   36-A'
  64   1.0000      -0.127314        -3.4644   37-A'
  65   1.0000      -0.118672        -3.2292   38-A'
  66   1.0000      -0.104992        -2.8570   39-A'
  67   1.0000      -0.080078        -2.1790   40-A'
  68   1.0000      -0.070473        -1.9177   29-A"
  69   1.0000      -0.066341        -1.8052   30-A"
  70   1.0000      -0.059988        -1.6324   41-A'
  71   1.0000      -0.039099        -1.0639   42-A'
  72   1.0000      -0.037224        -1.0129   43-A'
  73   1.0000      -0.033207        -0.9036   31-A"
  74   1.0000      -0.030100        -0.8191   44-A'
  75   1.0000      -0.027113        -0.7378   32-A"
  76   1.0000      -0.019558        -0.5322   33-A"
  77   1.0000      -0.004059        -0.1105   34-A"
  78   1.0000      -0.001950        -0.0531   45-A'
  79   1.0000      -0.000074        -0.0020   46-A'
  80   1.0000       0.017009         0.4629   47-A'
  81   1.0000       0.017678         0.4810   48-A'
  82   1.0000       0.033446         0.9101   35-A"
  83   1.0000       0.048347         1.3156   36-A"
  84   1.0000       0.050745         1.3808   37-A"
  85   1.0000       0.060638         1.6500   49-A'
  86   1.0000       0.085638         2.3303   50-A'
  87   1.0000       0.103777         2.8239   38-A"
  88   0.0000       0.181013         4.9256   51-A'
  89   0.0000       0.181256         4.9322   52-A'
  90   0.0000       0.187970         5.1149   53-A'
  91   0.0000       0.196551         5.3484   39-A"
  92   0.0000       0.197457         5.3731   40-A"

                 SPIN DOWN ORBITALS
  NO   OCC          E(Eh)            E(eV)    Irrep
   0   1.0000    -318.182592     -8658.1885    1-A'
   1   1.0000     -88.015474     -2395.0228    1-A"
   2   1.0000     -88.015464     -2395.0225    2-A'
   3   1.0000     -88.014630     -2394.9998    2-A"
   4   1.0000     -88.014619     -2394.9995    3-A'
   5   1.0000     -38.012123     -1034.3625    4-A'
   6   1.0000     -33.515962      -912.0157    3-A"
   7   1.0000     -33.515152      -911.9936    5-A'
   8   1.0000     -33.512200      -911.9133    6-A'
   9   1.0000      -9.835350      -267.6335    7-A'
  10   1.0000      -9.835020      -267.6245    4-A"
  11   1.0000      -9.833886      -267.5937    8-A'
  12   1.0000      -9.833556      -267.5847    5-A"
  13   1.0000      -9.825131      -267.3554    9-A'
  14   1.0000      -9.824704      -267.3438    6-A"
  15   1.0000      -9.824638      -267.3420   10-A'
  16   1.0000      -9.824208      -267.3303    7-A"
  17   1.0000      -9.820856      -267.2391    8-A"
  18   1.0000      -9.820852      -267.2390   11-A'
  19   1.0000      -9.817855      -267.1574    9-A"
  20   1.0000      -9.817850      -267.1573   12-A'
  21   1.0000      -7.584473      -206.3840   10-A"
  22   1.0000      -7.584464      -206.3838   13-A'
  23   1.0000      -7.583663      -206.3620   11-A"
  24   1.0000      -7.583654      -206.3617   14-A'
  25   1.0000      -5.507477      -149.8661   12-A"
  26   1.0000      -5.507477      -149.8661   15-A'
  27   1.0000      -5.506658      -149.8438   13-A"
  28   1.0000      -5.506658      -149.8438   16-A'
  29   1.0000      -5.500842      -149.6855   14-A"
  30   1.0000      -5.500842      -149.6855   17-A'
  31   1.0000      -5.500491      -149.6760   15-A"
  32   1.0000      -5.500491      -149.6760   18-A'
  33   1.0000      -5.500069      -149.6645   16-A"
  34   1.0000      -5.500068      -149.6645   19-A'
  35   1.0000      -5.499641      -149.6528   17-A"
  36   1.0000      -5.499641      -149.6528   20-A'
  37   1.0000      -3.991884      -108.6247   21-A'
  38   1.0000      -2.506382       -68.2021   22-A'
  39   1.0000      -2.504985       -68.1641   18-A"
  40   1.0000      -2.503442       -68.1221   23-A'
  41   1.0000      -0.590050       -16.0561   24-A'
  42   1.0000      -0.589940       -16.0531   25-A'
  43   1.0000      -0.504257       -13.7215   26-A'
  44   1.0000      -0.503226       -13.6935   27-A'
  45   1.0000      -0.489430       -13.3181   19-A"
  46   1.0000      -0.487684       -13.2705   20-A"
  47   1.0000      -0.406545       -11.0627   21-A"
  48   1.0000      -0.403819       -10.9885   22-A"
  49   1.0000      -0.385337       -10.4856   28-A'
  50   1.0000      -0.378610       -10.3025   29-A'
  51   1.0000      -0.319689        -8.6992   30-A'
  52   1.0000      -0.314262        -8.5515   31-A'
  53   1.0000      -0.298127        -8.1125   23-A"
  54   1.0000      -0.293732        -7.9929   24-A"
  55   1.0000      -0.230813        -6.2807   32-A'
  56   1.0000      -0.223530        -6.0826   33-A'
  57   1.0000      -0.189726        -5.1627   34-A'
  58   1.0000      -0.188775        -5.1368   35-A'
  59   1.0000      -0.174887        -4.7589   25-A"
  60   1.0000      -0.166275        -4.5246   26-A"
  61   1.0000      -0.144139        -3.9222   27-A"
  62   1.0000      -0.137283        -3.7357   28-A"
  63   1.0000      -0.135495        -3.6870   36-A'
  64   1.0000      -0.126706        -3.4478   37-A'
  65   1.0000      -0.118122        -3.2143   38-A'
  66   1.0000      -0.103998        -2.8299   39-A'
  67   1.0000      -0.078683        -2.1411   40-A'
  68   1.0000      -0.069022        -1.8782   29-A"
  69   1.0000      -0.058376        -1.5885   41-A'
  70   1.0000      -0.052015        -1.4154   30-A"
  71   1.0000      -0.037445        -1.0189   42-A'
  72   1.0000      -0.036024        -0.9803   43-A'
  73   1.0000      -0.023955        -0.6518   31-A"
  74   1.0000      -0.023357        -0.6356   44-A'
  75   1.0000      -0.019175        -0.5218   32-A"
  76   1.0000      -0.003776        -0.1028   33-A"
  77   1.0000       0.005475         0.1490   34-A"
  78   1.0000       0.008880         0.2416   45-A'
  79   1.0000       0.012176         0.3313   46-A'
  80   1.0000       0.024532         0.6675   47-A'
  81   1.0000       0.032729         0.8906   48-A'
  82   1.0000       0.041796         1.1373   35-A"
  83   1.0000       0.051247         1.3945   36-A"
  84   1.0000       0.056329         1.5328   37-A"
  85   1.0000       0.062499         1.7007   49-A'
  86   1.0000       0.089813         2.4439   50-A'
  87   0.0000       0.136831         3.7233   38-A"
  88   0.0000       0.182142         4.9563   51-A'
  89   0.0000       0.182344         4.9618   52-A'
  90   0.0000       0.188107         5.1187   53-A'
  91   0.0000       0.198441         5.3999   39-A"

MULLIKEN ATOMIC CHARGES AND SPIN POPULATIONS
--------------------------------------------
   0 Cu:    0.142422    0.375069
   1 S :   -0.412570    0.163409
   2 C :    0.049020   -0.007865
   3 S :   -0.422397    0.163392
   4 C :    0.028832   -0.007613
   5 S :   -0.412570    0.163409
   6 C :    0.049020   -0.007865
   7 S :   -0.422397    0.163392
   8 C :    0.028832   -0.007613
   9 C :   -0.095949   -0.001540
  10 C :   -0.095949   -0.001540
  11 C :   -0.133842   -0.000850
  12 H :    0.058220    0.001945
  13 C :   -0.133842   -0.000850
  14 H :    0.058220    0.001945
  15 H :    0.030891    0.001106
  16 H :    0.030891    0.001106
  17 C :   -0.111149   -0.001439
  18 C :   -0.111149   -0.001439
  19 C :   -0.116373   -0.000781
  20 H :    0.028339    0.001541
  21 C :   -0.116373   -0.000781
  22 H :    0.028339    0.001541
  23 H :    0.025767    0.001162
  24 H :    0.025767    0.001162
Sum of atomic charges         :   -2.0000000

LOEWDIN ATOMIC CHARGES AND SPIN POPULATIONS
-------------------------------------------
   0 Cu:   -0.893802    0.441976
   1 S :    0.009608    0.124579
   2 C :   -0.044286    0.005104
   3 S :    0.009706    0.124381
   4 C :   -0.039301    0.005157
   5 S :    0.009608    0.124579
   6 C :   -0.044286    0.005104
   7 S :    0.009706    0.124381
   8 C :   -0.039301    0.005157
   9 C :    0.301831    0.003859
  10 C :    0.301831    0.003859
  11 C :    0.308962   -0.000117
  12 H :   -0.439585    0.006210
  13 C :    0.308962   -0.000117
  14 H :   -0.439585    0.006210
  15 H :   -0.416793    0.000210
  16 H :   -0.416793    0.000210
  17 C :    0.278972    0.003612
  18 C :    0.278972    0.003612
  19 C :    0.294099   -0.000103
  20 H :   -0.405698    0.005887
  21 C :    0.294099   -0.000103
  22 H :   -0.405698    0.005887
  23 H :   -0.410614    0.000233
  24 H :   -0.410614    0.000233

  Mayer bond orders larger than 0.100000
B(  0-Cu,  1-S ) :   0.6997 B(  0-Cu,  3-S ) :   0.7020 B(  0-Cu,  5-S ) :   0.6997
B(  0-Cu,  7-S ) :   0.7020 B(  1-S ,  2-C ) :   1.1877 B(  2-C ,  6-C ) :   1.2320
B(  2-C , 17-C ) :   1.3232 B(  3-S ,  4-C ) :   1.1847 B(  4-C ,  8-C ) :   1.2419
B(  4-C , 10-C ) :   1.3194 B(  5-S ,  6-C ) :   1.1877 B(  6-C , 18-C ) :   1.3232
B(  7-S ,  8-C ) :   1.1847 B(  8-C ,  9-C ) :   1.3194 B(  9-C , 13-C ) :   1.3593
B(  9-C , 14-H ) :   0.9750 B( 10-C , 11-C ) :   1.3593 B( 10-C , 12-H ) :   0.9750
B( 11-C , 13-C ) :   1.3411 B( 11-C , 15-H ) :   0.9882 B( 13-C , 16-H ) :   0.9882
B( 17-C , 19-C ) :   1.3431 B( 17-C , 20-H ) :   0.9944 B( 18-C , 21-C ) :   1.3431
B( 18-C , 22-H ) :   0.9944 B( 19-C , 21-C ) :   1.3505 B( 19-C , 23-H ) :   0.9890
B( 21-C , 24-H ) :   0.9890

FINAL SINGLE POINT ENERGY     -3686.905037963431

DIPOLE MOMENT
-------------
                                X             Y             Z
Electronic contribution:     -0.06625       0.35066       0.00000
Nuclear contribution   :     -0.07214      -0.37875      -0.00000
                        -----------------------------------------
Total Dipole Moment    :     -0.13839      -0.02809      -0.00000
                        -----------------------------------------
Magnitude (a.u.)       :      0.14122
Magnitude (Debye)      :      0.35894

Rotational constants in cm-1:     0.033398     0.004803     0.004200
Rotational constants in MHz :  1001.255273   144.003071   125.919615

                             ****ORCA TERMINATED NORMALLY****
TOTAL RUN TIME: 0 days 7 hours 20 minutes 38 seconds 310 msec
