                         Program Version 5.0.4 -  RELEASE  -
|  1> ! RIJCOSX nofrozencore ReducedPop printbasis
|  2> ! M06L ano-rcc-dzp autoaux
|  3>
|  4> %maxcore 5000
|  5> %basis
|  6> PCDTrimBas overlap
|  7> PCDTrimAuxJ Coulomb
|  8> PCDTrimAuxJK Coulomb
|  9> PCDTrimAuxC Coulomb
| 10> PCDThresh -1
| 11> end
| 12>
| 13> %basis
| 14> newgto Cu "ano-rcc-tzp" end
| 15> newgto S "ano-rcc-tzp" end
| 16> end
| 17>
| 18> %pal
| 19> nprocs 12
| 20> end
| 21>
| 22> % sym SymThresh 1e-2 end
| 23> * xyz -2 2
| 24> Cu 0.00017031327257897242 0.00013973496678153433 -5.8681583499460314e-05
| 25> S 1.5537432464703984 1.3399788550830705 -1.1009698493182678
| 26> C 1.229828903514753 1.2678898864396584 -2.669570420971084
| 27> S 0.9280308236562669 0.48732162391278216 2.0581453730120427
| 28> C -0.14678472141354693 -0.48571675566380446 3.2196653489299125
| 29> S -0.933015920480473 -0.4917824086355214 -2.0532115211384387
| 30> C 0.16242941244379955 0.4981491844244169 -3.2215560690784897
| 31> S -1.5560191110610202 -1.3407453234516333 1.092203992166503
| 32> C -1.2189266104295333 -1.2609705857779328 2.6833872168672612
| 33> C -1.9390906828480452 -1.9350009972108233 3.653036218956777
| 34> C 0.15495591639632608 -0.41031406016241706 4.609324655709534
| 35> C -0.552448749578429 -1.0783340166591062 5.613254344660063
| 36> H 1.0128040084787486 0.23522984769739036 4.819410643915876
| 37> C -1.5793677797077978 -1.8079319716507127 4.987197096223291
| 38> H -2.7937949766435093 -2.575878043695662 3.423756581924904
| 39> H -0.38349601684095 -1.0702513493270394 6.687525458618889
| 40> H -2.2382911688730607 -2.3963907813096665 5.629268402850313
| 41> C 1.9414629768308242 1.9356204872479563 -3.642342070400058
| 42> C -0.14601329748092243 0.4177767485371991 -4.6134958586720805
| 43> C 1.5651335877845227 1.7951775077216072 -4.972958564340667
| 44> H 2.802043324010169 2.5842823556615993 -3.440799590200972
| 45> C 0.5463018747525566 1.0761953466654013 -5.636335578455792
| 46> H -1.0099460896304229 -0.23594302797035716 -4.793865367175261
| 47> H 2.2346745284681537 2.390343605954889 -5.601302417753947
| 48> H 0.3878893781131697 1.076598536417676 -6.712844207675038
| 49> *
| 50>
| 51> % eprnmr
| 52> gtensor true
| 53> Nuclei = all H {aiso,adip,aorb,fgrad,rho}
| 54> Nuclei = all Cu {aiso,adip,aorb,fgrad,rho}
| 55> end
| 56>
| 57>                          ****END OF INPUT****

CARTESIAN COORDINATES (ANGSTROEM)
---------------------------------
  Cu    -0.000067    0.000218    0.000000
  S     -1.177068    2.009056    0.000000
  C     -2.740585    1.654034    0.000000
  S      2.028975    1.103606    0.000000
  C      3.245534   -0.300368    0.000000
  S     -2.023789   -1.110102    0.000000
  C     -3.248136    0.320271    0.000000
  S      1.168351   -2.011631    0.000000
  C      2.753996   -1.640701    0.000000
  C      3.761671   -2.588205    0.000000
  C      4.630028    0.032891    0.000000
  C      5.671618   -0.899652    0.000000
  H      4.803003    1.113097    0.000000
  C      5.087740   -2.179461    0.000000
  H      3.569247   -3.663745    0.000000
  H      6.744773   -0.723562    0.000000
  H      5.763134   -3.037693    0.000000
  C     -3.751019    2.590834    0.000000
  C     -4.634624   -0.021404    0.000000
  C     -5.072780    2.160908    0.000000
  H     -3.586761    3.674808    0.000000
  C     -5.694563    0.892678    0.000000
  H     -4.777433   -1.110380    0.000000
  H     -5.734839    3.032116    0.000000
  H     -6.770440    0.730030    0.000000

 Total Charge           Charge          ....   -2
 Multiplicity           Mult            ....    2
 Number of Electrons    NEL             ....  175
 Basis Dimension        Dim             ....  475

ORBITAL ENERGIES
----------------
                 SPIN UP ORBITALS
  NO   OCC          E(Eh)            E(eV)    Irrep
   0   1.0000    -318.182033     -8658.1733    1-A'
   1   1.0000     -88.014799     -2395.0044    2-A'
   2   1.0000     -88.014736     -2395.0027    3-A'
   3   1.0000     -88.014117     -2394.9859    4-A'
   4   1.0000     -88.013695     -2394.9744    5-A'
   5   1.0000     -38.027197     -1034.7726    6-A'
   6   1.0000     -33.530307      -912.4060    7-A'
   7   1.0000     -33.529469      -912.3832    8-A'
   8   1.0000     -33.515795      -912.0111    1-A"
   9   1.0000      -9.835322      -267.6327    9-A'
  10   1.0000      -9.835315      -267.6325   10-A'
  11   1.0000      -9.831449      -267.5273   11-A'
  12   1.0000      -9.829721      -267.4803   12-A'
  13   1.0000      -9.829351      -267.4702   13-A'
  14   1.0000      -9.828153      -267.4376   14-A'
  15   1.0000      -9.823982      -267.3241   15-A'
  16   1.0000      -9.823770      -267.3184   16-A'
  17   1.0000      -9.823059      -267.2990   17-A'
  18   1.0000      -9.822589      -267.2862   18-A'
  19   1.0000      -9.816039      -267.1080   19-A'
  20   1.0000      -9.815619      -267.0966   20-A'
  21   1.0000      -7.586735      -206.4456   21-A'
  22   1.0000      -7.586158      -206.4299   22-A'
  23   1.0000      -7.581370      -206.2996   23-A'
  24   1.0000      -7.580935      -206.2877   24-A'
  25   1.0000      -5.509011      -149.9078   25-A'
  26   1.0000      -5.508610      -149.8969   26-A'
  27   1.0000      -5.505154      -149.8029   27-A'
  28   1.0000      -5.504835      -149.7942   28-A'
  29   1.0000      -5.504184      -149.7764   29-A'
  30   1.0000      -5.503741      -149.7644   30-A'
  31   1.0000      -5.503180      -149.7491    2-A"
  32   1.0000      -5.502544      -149.7318    3-A"
  33   1.0000      -5.499474      -149.6483   31-A'
  34   1.0000      -5.499116      -149.6385   32-A'
  35   1.0000      -5.497154      -149.5852    4-A"
  36   1.0000      -5.496645      -149.5713    5-A"
  37   1.0000      -4.024812      -109.5207   33-A'
  38   1.0000      -2.546187       -69.2853   34-A'
  39   1.0000      -2.544668       -69.2439   35-A'
  40   1.0000      -2.517418       -68.5024    6-A"
  41   1.0000      -0.593445       -16.1485   36-A'
  42   1.0000      -0.591903       -16.1065   37-A'
  43   1.0000      -0.520281       -14.1576   38-A'
  44   1.0000      -0.516270       -14.0484   39-A'
  45   1.0000      -0.479639       -13.0516   40-A'
  46   1.0000      -0.476605       -12.9691   41-A'
  47   1.0000      -0.420757       -11.4494   42-A'
  48   1.0000      -0.417629       -11.3643   43-A'
  49   1.0000      -0.377928       -10.2839   44-A'
  50   1.0000      -0.371679       -10.1139   45-A'
  51   1.0000      -0.320270        -8.7150   46-A'
  52   1.0000      -0.318072        -8.6552   47-A'
  53   1.0000      -0.301086        -8.1930   48-A'
  54   1.0000      -0.297826        -8.1043   49-A'
  55   1.0000      -0.235469        -6.4074   50-A'
  56   1.0000      -0.231269        -6.2931   51-A'
  57   1.0000      -0.189485        -5.1562   52-A'
  58   1.0000      -0.188024        -5.1164   53-A'
  59   1.0000      -0.174552        -4.7498   54-A'
  60   1.0000      -0.172100        -4.6831   55-A'
  61   1.0000      -0.160794        -4.3754   56-A'
  62   1.0000      -0.155888        -4.2419   57-A'
  63   1.0000      -0.119984        -3.2649    7-A"
  64   1.0000      -0.118856        -3.2342    8-A"
  65   1.0000      -0.109027        -2.9668   58-A'
  66   1.0000      -0.094385        -2.5684   59-A'
  67   1.0000      -0.087745        -2.3877   60-A'
  68   1.0000      -0.080711        -2.1963   61-A'
  69   1.0000      -0.060509        -1.6465   62-A'
  70   1.0000      -0.049186        -1.3384   63-A'
  71   1.0000      -0.047679        -1.2974    9-A"
  72   1.0000      -0.044716        -1.2168   10-A"
  73   1.0000      -0.031390        -0.8542   64-A'
  74   1.0000      -0.028877        -0.7858   65-A'
  75   1.0000      -0.020918        -0.5692   11-A"
  76   1.0000      -0.012079        -0.3287   12-A"
  77   1.0000      -0.004036        -0.1098   13-A"
  78   1.0000      -0.000433        -0.0118   66-A'
  79   1.0000       0.003458         0.0941   14-A"
  80   1.0000       0.018020         0.4904   67-A'
  81   1.0000       0.018967         0.5161   68-A'
  82   1.0000       0.034818         0.9475   69-A'
  83   1.0000       0.048593         1.3223   15-A"
  84   1.0000       0.050920         1.3856   16-A"
  85   1.0000       0.063229         1.7205   17-A"
  86   1.0000       0.087706         2.3866   18-A"
  87   1.0000       0.104596         2.8462   70-A'
  88   0.0000       0.180265         4.9053   71-A'
  89   0.0000       0.180600         4.9144   72-A'
  90   0.0000       0.197614         5.3774   73-A'
  91   0.0000       0.198014         5.3882   74-A'
  92   0.0000       0.200298         5.4504   19-A"

                 SPIN DOWN ORBITALS
  NO   OCC          E(Eh)            E(eV)    Irrep
   0   1.0000    -318.181859     -8658.1686    1-A'
   1   1.0000     -88.013754     -2394.9760    2-A'
   2   1.0000     -88.013665     -2394.9736    3-A'
   3   1.0000     -88.013024     -2394.9562    4-A'
   4   1.0000     -88.012626     -2394.9453    5-A'
   5   1.0000     -38.011409     -1034.3430    6-A'
   6   1.0000     -33.515223      -911.9956    7-A'
   7   1.0000     -33.514418      -911.9737    8-A'
   8   1.0000     -33.511494      -911.8941    1-A"
   9   1.0000      -9.835413      -267.6352    9-A'
  10   1.0000      -9.835403      -267.6349   10-A'
  11   1.0000      -9.831439      -267.5271   11-A'
  12   1.0000      -9.829710      -267.4800   12-A'
  13   1.0000      -9.829473      -267.4735   13-A'
  14   1.0000      -9.828275      -267.4410   14-A'
  15   1.0000      -9.823957      -267.3235   15-A'
  16   1.0000      -9.823736      -267.3174   16-A'
  17   1.0000      -9.823025      -267.2981   17-A'
  18   1.0000      -9.822562      -267.2855   18-A'
  19   1.0000      -9.815908      -267.1044   19-A'
  20   1.0000      -9.815501      -267.0934   20-A'
  21   1.0000      -7.586000      -206.4256   21-A'
  22   1.0000      -7.585407      -206.4094   22-A'
  23   1.0000      -7.580654      -206.2801   23-A'
  24   1.0000      -7.580201      -206.2678   24-A'
  25   1.0000      -5.508037      -149.8813   25-A'
  26   1.0000      -5.507621      -149.8700   26-A'
  27   1.0000      -5.504265      -149.7787   27-A'
  28   1.0000      -5.503924      -149.7694   28-A'
  29   1.0000      -5.502354      -149.7267    2-A"
  30   1.0000      -5.501997      -149.7169   29-A'
  31   1.0000      -5.501701      -149.7089    3-A"
  32   1.0000      -5.501499      -149.7034   30-A'
  33   1.0000      -5.497246      -149.5877   31-A'
  34   1.0000      -5.496825      -149.5762   32-A'
  35   1.0000      -5.496369      -149.5638    4-A"
  36   1.0000      -5.495840      -149.5494    5-A"
  37   1.0000      -3.991275      -108.6081   33-A'
  38   1.0000      -2.505755       -68.1851    6-A"
  39   1.0000      -2.504562       -68.1526   34-A'
  40   1.0000      -2.502637       -68.1002   35-A'
  41   1.0000      -0.592908       -16.1338   36-A'
  42   1.0000      -0.591418       -16.0933   37-A'
  43   1.0000      -0.518824       -14.1179   38-A'
  44   1.0000      -0.514815       -14.0088   39-A'
  45   1.0000      -0.478756       -13.0276   40-A'
  46   1.0000      -0.475740       -12.9455   41-A'
  47   1.0000      -0.417557       -11.3623   42-A'
  48   1.0000      -0.414250       -11.2723   43-A'
  49   1.0000      -0.374036       -10.1780   44-A'
  50   1.0000      -0.367810       -10.0086   45-A'
  51   1.0000      -0.319158        -8.6847   46-A'
  52   1.0000      -0.316723        -8.6185   47-A'
  53   1.0000      -0.299244        -8.1428   48-A'
  54   1.0000      -0.295605        -8.0438   49-A'
  55   1.0000      -0.234878        -6.3914   50-A'
  56   1.0000      -0.230595        -6.2748   51-A'
  57   1.0000      -0.188303        -5.1240   52-A'
  58   1.0000      -0.187015        -5.0889   53-A'
  59   1.0000      -0.173952        -4.7335   54-A'
  60   1.0000      -0.171126        -4.6566   55-A'
  61   1.0000      -0.159596        -4.3428   56-A'
  62   1.0000      -0.154947        -4.2163   57-A'
  63   1.0000      -0.119703        -3.2573    7-A"
  64   1.0000      -0.118600        -3.2273    8-A"
  65   1.0000      -0.107527        -2.9260   58-A'
  66   1.0000      -0.093413        -2.5419   59-A'
  67   1.0000      -0.084658        -2.3037   60-A'
  68   1.0000      -0.079307        -2.1580   61-A'
  69   1.0000      -0.048727        -1.3259   62-A'
  70   1.0000      -0.046225        -1.2579    9-A"
  71   1.0000      -0.045625        -1.2415   63-A'
  72   1.0000      -0.043547        -1.1850   10-A"
  73   1.0000      -0.022121        -0.6019   64-A'
  74   1.0000      -0.016513        -0.4493   11-A"
  75   1.0000      -0.011189        -0.3045   12-A"
  76   1.0000      -0.002933        -0.0798   65-A'
  77   1.0000       0.006101         0.1660   13-A"
  78   1.0000       0.010331         0.2811   66-A'
  79   1.0000       0.014039         0.3820   14-A"
  80   1.0000       0.025674         0.6986   67-A'
  81   1.0000       0.033433         0.9098   68-A'
  82   1.0000       0.042997         1.1700   69-A'
  83   1.0000       0.051288         1.3956   15-A"
  84   1.0000       0.056401         1.5348   16-A"
  85   1.0000       0.065139         1.7725   17-A"
  86   1.0000       0.091859         2.4996   18-A"
  87   0.0000       0.137302         3.7362   70-A'
  88   0.0000       0.181508         4.9391   71-A'
  89   0.0000       0.181813         4.9474   72-A'
  90   0.0000       0.199127         5.4185   73-A'
  91   0.0000       0.199429         5.4267   74-A'

MULLIKEN ATOMIC CHARGES AND SPIN POPULATIONS
--------------------------------------------
   0 Cu:    0.141688    0.374585
   1 S :   -0.364944    0.156778
   2 C :    0.073001   -0.009563
   3 S :   -0.457378    0.164422
   4 C :   -0.016102   -0.006429
   5 S :   -0.461697    0.169090
   6 C :   -0.022546   -0.006558
   7 S :   -0.376637    0.160717
   8 C :    0.065128   -0.009153
   9 C :   -0.100719    0.000815
  10 C :   -0.065231   -0.002370
  11 C :   -0.226959   -0.001651
  12 H :    0.078230    0.002479
  13 C :   -0.061009   -0.000061
  14 H :    0.037590    0.001248
  15 H :    0.001787    0.000829
  16 H :    0.050540    0.001427
  17 C :   -0.100105    0.001502
  18 C :   -0.058353   -0.002322
  19 C :   -0.052689    0.000056
  20 H :    0.031284    0.000995
  21 C :   -0.241387   -0.001704
  22 H :    0.078339    0.002604
  23 H :    0.051142    0.001477
  24 H :   -0.002975    0.000787
Sum of atomic charges         :   -2.0000000

LOEWDIN ATOMIC CHARGES AND SPIN POPULATIONS
-------------------------------------------
   0 Cu:   -0.891069    0.440797
   1 S :    0.049195    0.120110
   2 C :   -0.138726    0.009335
   3 S :   -0.007503    0.123353
   4 C :    0.028831    0.002378
   5 S :   -0.009084    0.126936
   6 C :    0.041340    0.001891
   7 S :    0.039673    0.123692
   8 C :   -0.118112    0.008760
   9 C :    0.305296    0.005666
  10 C :    0.299159    0.002709
  11 C :    0.319497   -0.000580
  12 H :   -0.470277    0.007982
  13 C :    0.310484    0.000281
  14 H :   -0.416279    0.004620
  15 H :   -0.400569   -0.000070
  16 H :   -0.443886    0.000495
  17 C :    0.304773    0.005946
  18 C :    0.295619    0.002705
  19 C :    0.311276    0.000308
  20 H :   -0.409081    0.004208
  21 C :    0.322197   -0.000595
  22 H :   -0.474817    0.008648
  23 H :   -0.450407    0.000532
  24 H :   -0.397530   -0.000106

  Mayer bond orders larger than 0.100000
B(  0-Cu,  1-S ) :   0.6648 B(  0-Cu,  3-S ) :   0.7274 B(  0-Cu,  5-S ) :   0.7323
B(  0-Cu,  7-S ) :   0.6716 B(  1-S ,  2-C ) :   1.3242 B(  2-C ,  6-C ) :   1.2294
B(  2-C , 17-C ) :   1.2556 B(  3-S ,  4-C ) :   1.1010 B(  4-C ,  8-C ) :   1.2342
B(  4-C , 10-C ) :   1.3590 B(  5-S ,  6-C ) :   1.0864 B(  6-C , 18-C ) :   1.3653
B(  7-S ,  8-C ) :   1.2966 B(  8-C ,  9-C ) :   1.2667 B(  9-C , 13-C ) :   1.3758
B(  9-C , 14-H ) :   0.9879 B( 10-C , 11-C ) :   1.3401 B( 10-C , 12-H ) :   0.9604
B( 11-C , 13-C ) :   1.3260 B( 11-C , 15-H ) :   1.0151 B( 13-C , 16-H ) :   0.9747
B( 17-C , 19-C ) :   1.3771 B( 17-C , 20-H ) :   0.9917 B( 18-C , 21-C ) :   1.3343
B( 18-C , 22-H ) :   0.9599 B( 19-C , 21-C ) :   1.3211 B( 19-C , 23-H ) :   0.9748
B( 21-C , 24-H ) :   1.0198

FINAL SINGLE POINT ENERGY     -3686.861223947268

DIPOLE MOMENT
-------------
                                X             Y             Z
Electronic contribution:      0.01394       0.01582      -0.00000
Nuclear contribution   :      0.01047       0.01289       0.00000
                        -----------------------------------------
Total Dipole Moment    :      0.02441       0.02872      -0.00000
                        -----------------------------------------
Magnitude (a.u.)       :      0.03769
Magnitude (Debye)      :      0.09580

Rotational constants in cm-1:     0.033369     0.004803     0.004199
Rotational constants in MHz :  1000.375997   143.988231   125.871088

                             ****ORCA TERMINATED NORMALLY****
TOTAL RUN TIME: 0 days 5 hours 55 minutes 23 seconds 142 msec
