                         Program Version 5.0.4 -  RELEASE  -
|  1> ! RIJCOSX nofrozencore ReducedPop printbasis
|  2> ! M06L ano-rcc-dzp autoaux
|  3>
|  4> %maxcore 5000
|  5> %basis
|  6> PCDTrimBas overlap
|  7> PCDTrimAuxJ Coulomb
|  8> PCDTrimAuxJK Coulomb
|  9> PCDTrimAuxC Coulomb
| 10> PCDThresh -1
| 11> end
| 12>
| 13> %basis
| 14> newgto Cu "ano-rcc-tzp" end
| 15> newgto S "ano-rcc-tzp" end
| 16> end
| 17>
| 18> %pal
| 19> nprocs 12
| 20> end
| 21>
| 22> % sym SymThresh 1e-2 end
| 23> * xyz -2 2
| 24> Cu -8.647888687964745e-05 -2.2981353146752698e-05 5.124405487603296e-06
| 25> S -1.643230985516556 -0.9356128728915106 1.3375734341078183
| 26> C -0.8186069012428373 -1.345020549462403 2.851098373661361
| 27> S -1.5045565048706142 0.334848378172791 -1.7370422736590416
| 28> C -0.5801246636039803 1.037867353888936 -2.928675339412675
| 29> S 1.5064072310111507 -0.3324304594554655 1.7321448822279693
| 30> C 0.5724333172654785 -1.056321394165993 2.9699219023477124
| 31> S 1.644794879622779 0.9337309721314855 -1.3319551832453222
| 32> C 0.8122678378901604 1.3612903695625136 -2.8953522216038934
| 33> C 1.4917160423609668 1.9409074607695305 -3.9275547931731154
| 34> C -1.1984703952481834 1.3919058049068749 -4.180530978963104
| 35> C -0.4349433884632773 2.0234456150788973 -5.291241081952614
| 36> H -2.2681200246112065 1.1162074881717639 -4.138415396360296
| 37> C 0.9187587599216746 2.2506017068152104 -5.0418909230634545
| 38> H 2.5518849728717625 2.2046170799962863 -3.9455707557306496
| 39> H -0.6668410206089422 2.3887699811506287 -6.338775052705124
| 40> H 1.7489021607125554 2.6994242405094986 -5.658361186728776
| 41> C -1.511251133406234 -1.9345186666488483 3.899927433246103
| 42> C 1.177339427461691 -1.4061652548254657 4.2032696114071495
| 43> C -0.909994150532045 -2.2592048714195077 5.068546171234098
| 44> H -2.569839796730985 -2.1578259405854388 3.818464990173698
| 45> C 0.44650338383157157 -2.01085158946813 5.266887092320515
| 46> H 2.239728078151511 -1.175539626210243 4.268825696290986
| 47> H -1.5808492422614973 -2.7151613478163883 5.798531067065792
| 48> H 0.8515607832484072 -2.303844673383201 6.238749000003704
| 49> *
| 50>
| 51> % eprnmr
| 52> gtensor true
| 53> Nuclei = all H {aiso,adip,aorb,fgrad,rho}
| 54> Nuclei = all Cu {aiso,adip,aorb,fgrad,rho}
| 55> end
| 56>
| 57>                          ****END OF INPUT****

CARTESIAN COORDINATES (ANGSTROEM)
---------------------------------
  Cu     0.000009   -0.000089    0.000000
  S      1.514617   -1.752318    0.000000
  C      3.107192   -0.976379    0.000000
  S     -1.802546   -1.464226    0.000000
  C     -3.127527   -0.457635    0.000000
  S      1.797188    1.466360    0.000000
  C      3.172290    0.447777    0.000000
  S     -1.508638    1.753659    0.000000
  C     -3.154561    0.971959    0.000000
  C     -4.296789    1.719195    0.000000
  C     -4.447645   -1.033938    0.000000
  C     -5.678213   -0.196565    0.000000
  H     -4.353959   -2.135372    0.000000
  C     -5.470870    1.183034    0.000000
  H     -4.364095    2.809743    0.000000
  H     -6.795770   -0.385330    0.000000
  H     -6.172227    2.065482    0.000000
  C      4.267921   -1.737967    0.000000
  C      4.473086    1.011142    0.000000
  C      5.499178   -1.175288    0.000000
  H      4.228032   -2.822181    0.000000
  C      5.651465    0.209599    0.000000
  H      4.495674    2.100016    0.000000
  H      6.315575   -1.899385    0.000000
  H      6.679710    0.579929    0.000000

 Total Charge           Charge          ....   -2
 Multiplicity           Mult            ....    2
 Number of Electrons    NEL             ....  175
 Basis Dimension        Dim             ....  475

ORBITAL ENERGIES
----------------
                 SPIN UP ORBITALS
  NO   OCC          E(Eh)            E(eV)    Irrep
   0   1.0000    -318.182842     -8658.1953    1-A'
   1   1.0000     -88.018124     -2395.0949    2-A'
   2   1.0000     -88.016425     -2395.0487    3-A'
   3   1.0000     -88.014278     -2394.9903    4-A'
   4   1.0000     -88.012792     -2394.9498    5-A'
   5   1.0000     -38.028021     -1034.7951    6-A'
   6   1.0000     -33.531168      -912.4295    7-A'
   7   1.0000     -33.530316      -912.4063    8-A'
   8   1.0000     -33.516528      -912.0311    1-A"
   9   1.0000      -9.841884      -267.8113    9-A'
  10   1.0000      -9.836476      -267.6641   10-A'
  11   1.0000      -9.834517      -267.6108   11-A'
  12   1.0000      -9.834133      -267.6004   12-A'
  13   1.0000      -9.832791      -267.5638   13-A'
  14   1.0000      -9.832728      -267.5621   14-A'
  15   1.0000      -9.829864      -267.4842   15-A'
  16   1.0000      -9.823146      -267.3014   16-A'
  17   1.0000      -9.819412      -267.1998   17-A'
  18   1.0000      -9.814392      -267.0632   18-A'
  19   1.0000      -9.811445      -266.9830   19-A'
  20   1.0000      -9.802999      -266.7532   20-A'
  21   1.0000      -7.588674      -206.4983   21-A'
  22   1.0000      -7.585719      -206.4179   22-A'
  23   1.0000      -7.582496      -206.3302   23-A'
  24   1.0000      -7.580175      -206.2671   24-A'
  25   1.0000      -5.511576      -149.9776   25-A'
  26   1.0000      -5.508821      -149.9026   26-A'
  27   1.0000      -5.506401      -149.8368   27-A'
  28   1.0000      -5.505765      -149.8195   28-A'
  29   1.0000      -5.504758      -149.7921    2-A"
  30   1.0000      -5.503615      -149.7610   29-A'
  31   1.0000      -5.503571      -149.7598   30-A'
  32   1.0000      -5.501779      -149.7110    3-A"
  33   1.0000      -5.500436      -149.6745   31-A'
  34   1.0000      -5.498577      -149.6239    4-A"
  35   1.0000      -5.498226      -149.6143   32-A'
  36   1.0000      -5.496253      -149.5606    5-A"
  37   1.0000      -4.025615      -109.5426   33-A'
  38   1.0000      -2.547061       -69.3091   34-A'
  39   1.0000      -2.545528       -69.2673   35-A'
  40   1.0000      -2.518067       -68.5201    6-A"
  41   1.0000      -0.595206       -16.1964   36-A'
  42   1.0000      -0.590657       -16.0726   37-A'
  43   1.0000      -0.519146       -14.1267   38-A'
  44   1.0000      -0.507800       -13.8179   39-A'
  45   1.0000      -0.488079       -13.2813   40-A'
  46   1.0000      -0.479031       -13.0351   41-A'
  47   1.0000      -0.415845       -11.3157   42-A'
  48   1.0000      -0.410282       -11.1643   43-A'
  49   1.0000      -0.387390       -10.5414   44-A'
  50   1.0000      -0.380832       -10.3630   45-A'
  51   1.0000      -0.325229        -8.8499   46-A'
  52   1.0000      -0.321721        -8.7545   47-A'
  53   1.0000      -0.298102        -8.1118   48-A'
  54   1.0000      -0.292361        -7.9555   49-A'
  55   1.0000      -0.233050        -6.3416   50-A'
  56   1.0000      -0.227763        -6.1978   51-A'
  57   1.0000      -0.194529        -5.2934   52-A'
  58   1.0000      -0.191027        -5.1981   53-A'
  59   1.0000      -0.175074        -4.7640   54-A'
  60   1.0000      -0.163614        -4.4522   55-A'
  61   1.0000      -0.144514        -3.9324   56-A'
  62   1.0000      -0.135853        -3.6968   57-A'
  63   1.0000      -0.130739        -3.5576   58-A'
  64   1.0000      -0.120771        -3.2864    7-A"
  65   1.0000      -0.117965        -3.2100    8-A"
  66   1.0000      -0.111478        -3.0335   59-A'
  67   1.0000      -0.086791        -2.3617   60-A'
  68   1.0000      -0.076856        -2.0914   61-A'
  69   1.0000      -0.065334        -1.7778   62-A'
  70   1.0000      -0.052478        -1.4280   63-A'
  71   1.0000      -0.047327        -1.2878    9-A"
  72   1.0000      -0.040262        -1.0956   10-A"
  73   1.0000      -0.036072        -0.9816   64-A'
  74   1.0000      -0.025492        -0.6937   65-A'
  75   1.0000      -0.024831        -0.6757   11-A"
  76   1.0000      -0.016286        -0.4432   12-A"
  77   1.0000      -0.003827        -0.1041   13-A"
  78   1.0000      -0.001095        -0.0298   66-A'
  79   1.0000       0.000705         0.0192   14-A"
  80   1.0000       0.017451         0.4749   67-A'
  81   1.0000       0.017545         0.4774   68-A'
  82   1.0000       0.034345         0.9346   69-A'
  83   1.0000       0.049048         1.3347   15-A"
  84   1.0000       0.051139         1.3916   16-A"
  85   1.0000       0.061797         1.6816   17-A"
  86   1.0000       0.086754         2.3607   18-A"
  87   1.0000       0.103606         2.8193   70-A'
  88   0.0000       0.180039         4.8991   71-A'
  89   0.0000       0.180988         4.9249   72-A'
  90   0.0000       0.193272         5.2592   19-A"
  91   0.0000       0.196464         5.3461   73-A'
  92   0.0000       0.196603         5.3498   74-A'

                 SPIN DOWN ORBITALS
  NO   OCC          E(Eh)            E(eV)    Irrep
   0   1.0000    -318.182667     -8658.1905    1-A'
   1   1.0000     -88.017094     -2395.0669    2-A'
   2   1.0000     -88.015338     -2395.0191    3-A'
   3   1.0000     -88.013222     -2394.9615    4-A'
   4   1.0000     -88.011699     -2394.9201    5-A'
   5   1.0000     -38.012154     -1034.3633    6-A'
   6   1.0000     -33.516008      -912.0169    7-A'
   7   1.0000     -33.515190      -911.9947    8-A'
   8   1.0000     -33.512204      -911.9134    1-A"
   9   1.0000      -9.841849      -267.8103    9-A'
  10   1.0000      -9.836590      -267.6672   10-A'
  11   1.0000      -9.834411      -267.6079   11-A'
  12   1.0000      -9.834252      -267.6036   12-A'
  13   1.0000      -9.832904      -267.5669   13-A'
  14   1.0000      -9.832837      -267.5651   14-A'
  15   1.0000      -9.829837      -267.4835   15-A'
  16   1.0000      -9.823069      -267.2993   16-A'
  17   1.0000      -9.819393      -267.1993   17-A'
  18   1.0000      -9.814373      -267.0627   18-A'
  19   1.0000      -9.811402      -266.9818   19-A'
  20   1.0000      -9.802971      -266.7524   20-A'
  21   1.0000      -7.587969      -206.4791   21-A'
  22   1.0000      -7.584977      -206.3977   22-A'
  23   1.0000      -7.581772      -206.3105   23-A'
  24   1.0000      -7.579429      -206.2467   24-A'
  25   1.0000      -5.510677      -149.9531   25-A'
  26   1.0000      -5.507876      -149.8769   26-A'
  27   1.0000      -5.504843      -149.7944   27-A'
  28   1.0000      -5.504246      -149.7782   28-A'
  29   1.0000      -5.503974      -149.7708    2-A"
  30   1.0000      -5.502619      -149.7339   29-A'
  31   1.0000      -5.501340      -149.6991   30-A'
  32   1.0000      -5.500953      -149.6885    3-A"
  33   1.0000      -5.498219      -149.6142   31-A'
  34   1.0000      -5.497771      -149.6020    4-A"
  35   1.0000      -5.495939      -149.5521   32-A'
  36   1.0000      -5.495420      -149.5380    5-A"
  37   1.0000      -3.991873      -108.6244   33-A'
  38   1.0000      -2.506357       -68.2015    6-A"
  39   1.0000      -2.505030       -68.1653   34-A'
  40   1.0000      -2.503399       -68.1210   35-A'
  41   1.0000      -0.594880       -16.1875   36-A'
  42   1.0000      -0.590296       -16.0628   37-A'
  43   1.0000      -0.517676       -14.0867   38-A'
  44   1.0000      -0.506446       -13.7811   39-A'
  45   1.0000      -0.487074       -13.2539   40-A'
  46   1.0000      -0.478088       -13.0094   41-A'
  47   1.0000      -0.412294       -11.2191   42-A'
  48   1.0000      -0.406326       -11.0567   43-A'
  49   1.0000      -0.384186       -10.4542   44-A'
  50   1.0000      -0.377724       -10.2784   45-A'
  51   1.0000      -0.323121        -8.7926   46-A'
  52   1.0000      -0.320059        -8.7092   47-A'
  53   1.0000      -0.296266        -8.0618   48-A'
  54   1.0000      -0.290681        -7.9098   49-A'
  55   1.0000      -0.232468        -6.3258   50-A'
  56   1.0000      -0.227059        -6.1786   51-A'
  57   1.0000      -0.193569        -5.2673   52-A'
  58   1.0000      -0.190099        -5.1729   53-A'
  59   1.0000      -0.174376        -4.7450   54-A'
  60   1.0000      -0.162710        -4.4276   55-A'
  61   1.0000      -0.143529        -3.9056   56-A'
  62   1.0000      -0.134499        -3.6599   57-A'
  63   1.0000      -0.129422        -3.5218   58-A'
  64   1.0000      -0.120613        -3.2821    7-A"
  65   1.0000      -0.117780        -3.2050    8-A"
  66   1.0000      -0.110453        -3.0056   59-A'
  67   1.0000      -0.085387        -2.3235   60-A'
  68   1.0000      -0.075500        -2.0545   61-A'
  69   1.0000      -0.055575        -1.5123   62-A'
  70   1.0000      -0.045848        -1.2476    9-A"
  71   1.0000      -0.045799        -1.2463   63-A'
  72   1.0000      -0.038859        -1.0574   10-A"
  73   1.0000      -0.022181        -0.6036   64-A'
  74   1.0000      -0.021554        -0.5865   11-A"
  75   1.0000      -0.014967        -0.4073   12-A"
  76   1.0000      -0.003884        -0.1057   65-A'
  77   1.0000       0.005787         0.1575   13-A"
  78   1.0000       0.009795         0.2665   66-A'
  79   1.0000       0.012500         0.3401   14-A"
  80   1.0000       0.024302         0.6613   67-A'
  81   1.0000       0.032901         0.8953   68-A'
  82   1.0000       0.042593         1.1590   69-A'
  83   1.0000       0.051848         1.4109   15-A"
  84   1.0000       0.056664         1.5419   16-A"
  85   1.0000       0.063669         1.7325   17-A"
  86   1.0000       0.090900         2.4735   18-A"
  87   0.0000       0.136589         3.7168   70-A'
  88   0.0000       0.181147         4.9293   71-A'
  89   0.0000       0.182114         4.9556   72-A'
  90   0.0000       0.193411         5.2630   19-A"
  91   0.0000       0.198242         5.3944   73-A'

MULLIKEN ATOMIC CHARGES AND SPIN POPULATIONS
--------------------------------------------
   0 Cu:    0.140119    0.375645
   1 S :   -0.438996    0.162759
   2 C :    0.001716   -0.007367
   3 S :   -0.386555    0.152357
   4 C :    0.082672   -0.007001
   5 S :   -0.406894    0.163692
   6 C :    0.044466   -0.007615
   7 S :   -0.450891    0.170907
   8 C :   -0.035729   -0.008637
   9 C :    0.017001   -0.001282
  10 C :   -0.159133    0.000102
  11 C :   -0.265861   -0.000440
  12 H :    0.081039    0.002224
  13 C :    0.006839   -0.001236
  14 H :    0.032108    0.001191
  15 H :    0.003458    0.001164
  16 H :    0.002994    0.001872
  17 C :   -0.053965   -0.001702
  18 C :   -0.122479   -0.001208
  19 C :   -0.083900   -0.001077
  20 H :    0.054225    0.001782
  21 C :   -0.191250   -0.000662
  22 H :    0.073436    0.002227
  23 H :    0.029345    0.001246
  24 H :    0.026236    0.001060
Sum of atomic charges         :   -2.0000000

LOEWDIN ATOMIC CHARGES AND SPIN POPULATIONS
-------------------------------------------
   0 Cu:   -0.891286    0.442216
   1 S :   -0.001335    0.123624
   2 C :   -0.022659    0.004581
   3 S :    0.043902    0.115563
   4 C :   -0.077776    0.006126
   5 S :    0.022262    0.124908
   6 C :   -0.053426    0.005860
   7 S :   -0.016788    0.130545
   8 C :    0.005372    0.003801
   9 C :    0.256988    0.003194
  10 C :    0.332679    0.005056
  11 C :    0.319788    0.000166
  12 H :   -0.478938    0.008056
  13 C :    0.258167   -0.000162
  14 H :   -0.413030    0.005040
  15 H :   -0.406792    0.000359
  16 H :   -0.381705    0.000388
  17 C :    0.290630    0.003453
  18 C :    0.319566    0.004411
  19 C :    0.296246   -0.000218
  20 H :   -0.433783    0.005643
  21 C :    0.321169   -0.000006
  22 H :   -0.459504    0.006942
  23 H :   -0.409388    0.000199
  24 H :   -0.420359    0.000253

  Mayer bond orders larger than 0.100000
B(  0-Cu,  1-S ) :   0.7073 B(  0-Cu,  3-S ) :   0.6788 B(  0-Cu,  5-S ) :   0.6969
B(  0-Cu,  7-S ) :   0.7201 B(  1-S ,  2-C ) :   1.1610 B(  2-C ,  6-C ) :   1.2427
B(  2-C , 17-C ) :   1.3198 B(  3-S ,  4-C ) :   1.2566 B(  4-C ,  8-C ) :   1.2377
B(  4-C , 10-C ) :   1.3083 B(  5-S ,  6-C ) :   1.2126 B(  6-C , 18-C ) :   1.3148
B(  7-S ,  8-C ) :   1.1276 B(  8-C ,  9-C ) :   1.3199 B(  9-C , 13-C ) :   1.3309
B(  9-C , 14-H ) :   0.9784 B( 10-C , 11-C ) :   1.3654 B( 10-C , 12-H ) :   0.9578
B( 11-C , 13-C ) :   1.3299 B( 11-C , 15-H ) :   1.0058 B( 13-C , 16-H ) :   0.9863
B( 17-C , 19-C ) :   1.3527 B( 17-C , 20-H ) :   0.9737 B( 18-C , 21-C ) :   1.3681
B( 18-C , 22-H ) :   0.9653 B( 19-C , 21-C ) :   1.3380 B( 19-C , 23-H ) :   0.9845
B( 21-C , 24-H ) :   0.9946

FINAL SINGLE POINT ENERGY     -3686.866376604053

DIPOLE MOMENT
-------------
                                X             Y             Z
Electronic contribution:      0.09966      -0.32359       0.00000
Nuclear contribution   :      0.03084       0.29392       0.00000
                        -----------------------------------------
Total Dipole Moment    :      0.13050      -0.02967       0.00000
                        -----------------------------------------
Magnitude (a.u.)       :      0.13383
Magnitude (Debye)      :      0.34017

Rotational constants in cm-1:     0.033410     0.004803     0.004200
Rotational constants in MHz :  1001.620603   144.000181   125.899905

                             ****ORCA TERMINATED NORMALLY****
TOTAL RUN TIME: 0 days 6 hours 46 minutes 32 seconds 162 msec
