                         Program Version 5.0.4 -  RELEASE  -
|  1> ! RIJCOSX nofrozencore ReducedPop printbasis
|  2> ! M06L ano-rcc-dzp autoaux
|  3>
|  4> %maxcore 5000
|  5> %basis
|  6> PCDTrimBas overlap
|  7> PCDTrimAuxJ Coulomb
|  8> PCDTrimAuxJK Coulomb
|  9> PCDTrimAuxC Coulomb
| 10> PCDThresh -1
| 11> end
| 12>
| 13> %basis
| 14> newgto Cu "ano-rcc-tzp" end
| 15> newgto S "ano-rcc-tzp" end
| 16> end
| 17>
| 18> %pal
| 19> nprocs 12
| 20> end
| 21>
| 22> % sym SymThresh 1e-2 end
| 23> * xyz -2 2
| 24> Cu 5.920924090643332e-07 5.23096447374572e-07 -1.8373341247232347e-06
| 25> S -1.2665396871370185 0.9750077394317623 1.6785169929783337
| 26> C -1.2739914507367647 -0.20321279232935707 2.9615437768549597
| 27> S -0.28251049503392694 1.8443624711983064 -1.3750372505688573
| 28> C 0.5915903357803104 1.4448604779761582 -2.8274587621399268
| 29> S 0.2825298947373981 -1.8443673657318929 1.375000744472843
| 30> C -0.5919455283564871 -1.445643466546218 2.82906550018111
| 31> S 1.2665381802436886 -0.9750298082418373 -1.678490017120713
| 32> C 1.2746929044121724 0.20335035908859572 -2.963202002149668
| 33> C 1.9470738049363268 -0.03335377239615778 -4.156364113253761
| 34> C 0.6253812158601949 2.3713027310687904 -3.8964499699391646
| 35> C 1.3237568816440706 2.0775653728017613 -5.084251365895675
| 36> H 0.2532779141928396 3.042222481971895 -3.816740898031577
| 37> C 1.9857656685110634 0.8570463066146423 -5.19715016162714
| 38> H 2.613194934013405 -1.256052687950753 -4.275773093873711
| 39> H 1.3315569287445856 2.7211305572245394 -5.7930941246356555
| 40> H 2.590472703944955 0.5924187664765483 -6.2145771258256595
| 41> C -1.9660921145902175 0.06870131044366183 4.15930183412018
| 42> C -0.6449960000064402 -2.3363214451817162 3.9010657997218794
| 43> C -1.9936297614371756 -0.8553270197365735 5.212233473235682
| 44> H -2.3935157451903364 0.8537517907183793 4.23539187578825
| 45> C -1.3223160129712999 -2.0676772663773684 5.070516009372901
| 46> H -0.03106070646836638 -3.44419803712788 3.770545237789774
| 47> H -2.4968841992563546 -0.631765939334015 6.055383803719246
| 48> H -1.3348607778765786 -2.8453470172068474 5.933781996050986
| 49> *
| 50>
| 51> % eprnmr
| 52> gtensor true
| 53> Nuclei = all H {aiso,adip,aorb,fgrad,rho}
| 54> Nuclei = all Cu {aiso,adip,aorb,fgrad,rho}
| 55> end
| 56>
| 57>                          ****END OF INPUT****

CARTESIAN COORDINATES (ANGSTROEM)
---------------------------------
  Cu     0.000001   -0.000002    0.000000
  S      1.259913    1.945457    0.000000
  C      0.082542    3.229285    0.000000
  S      1.909049   -1.314437    0.000000
  C      1.313110   -2.950909    0.000000
  S     -1.909058    1.314397    0.000000
  C     -1.313814    2.952590    0.000000
  S     -1.259935   -1.945429    0.000000
  C     -0.082562   -3.231090    0.000000
  C     -0.470321   -4.565782    0.000000
  C      2.232617   -4.026403    0.000000
  C      1.781951   -5.361238    0.000000
  H      2.987509   -3.868019    0.000000
  C      0.412018   -5.614125    0.000000
  H     -1.843358   -4.826046    0.000000
  H      2.424216   -6.071302    0.000000
  H      0.011504   -6.758871    0.000000
  C      0.509961    4.572742    0.000000
  C     -2.193209    4.035166    0.000000
  C     -0.408533    5.630864    0.000000
  H      1.391478    4.739214    0.000000
  C     -1.772380    5.347206    0.000000
  H     -3.439633    3.774838    0.000000
  H     -0.071880    6.579975    0.000000
  H     -2.547777    6.212605    0.000000

 Total Charge           Charge          ....   -2
 Multiplicity           Mult            ....    2
 Number of Electrons    NEL             ....  175
 Basis Dimension        Dim             ....  475

ORBITAL ENERGIES
----------------
                 SPIN UP ORBITALS
  NO   OCC          E(Eh)            E(eV)    Irrep
   0   1.0000    -318.182221     -8658.1784    1-A'
   1   1.0000     -88.015885     -2395.0340    2-A'
   2   1.0000     -88.015462     -2395.0225    3-A'
   3   1.0000     -88.015343     -2395.0193    4-A'
   4   1.0000     -88.015163     -2395.0143    5-A'
   5   1.0000     -38.027433     -1034.7791    6-A'
   6   1.0000     -33.530578      -912.4134    7-A'
   7   1.0000     -33.529731      -912.3904    8-A'
   8   1.0000     -33.515935      -912.0150    1-A"
   9   1.0000      -9.842033      -267.8153    9-A'
  10   1.0000      -9.836581      -267.6670   10-A'
  11   1.0000      -9.834978      -267.6234   11-A'
  12   1.0000      -9.834305      -267.6051   12-A'
  13   1.0000      -9.833723      -267.5892   13-A'
  14   1.0000      -9.833402      -267.5805   14-A'
  15   1.0000      -9.832976      -267.5689   15-A'
  16   1.0000      -9.831223      -267.5212   16-A'
  17   1.0000      -9.817212      -267.1399   17-A'
  18   1.0000      -9.813939      -267.0509   18-A'
  19   1.0000      -9.799970      -266.6707   19-A'
  20   1.0000      -9.792482      -266.4670   20-A'
  21   1.0000      -7.584423      -206.3827   21-A'
  22   1.0000      -7.584229      -206.3774   22-A'
  23   1.0000      -7.583964      -206.3702   23-A'
  24   1.0000      -7.583903      -206.3685   24-A'
  25   1.0000      -5.507755      -149.8736   25-A'
  26   1.0000      -5.507382      -149.8635   26-A'
  27   1.0000      -5.507222      -149.8591   27-A'
  28   1.0000      -5.507079      -149.8552   28-A'
  29   1.0000      -5.502309      -149.7254   29-A'
  30   1.0000      -5.502145      -149.7210   30-A'
  31   1.0000      -5.501886      -149.7139   31-A'
  32   1.0000      -5.501815      -149.7120   32-A'
  33   1.0000      -5.500436      -149.6745    2-A"
  34   1.0000      -5.500319      -149.6713    3-A"
  35   1.0000      -5.499993      -149.6624    4-A"
  36   1.0000      -5.499983      -149.6621    5-A"
  37   1.0000      -4.025028      -109.5266   33-A'
  38   1.0000      -2.546483       -69.2933   34-A'
  39   1.0000      -2.544944       -69.2514   35-A'
  40   1.0000      -2.517473       -68.5039    6-A"
  41   1.0000      -0.593471       -16.1492   36-A'
  42   1.0000      -0.591156       -16.0862   37-A'
  43   1.0000      -0.507666       -13.8143   38-A'
  44   1.0000      -0.505425       -13.7533   39-A'
  45   1.0000      -0.500014       -13.6061   40-A'
  46   1.0000      -0.493909       -13.4400   41-A'
  47   1.0000      -0.413398       -11.2491   42-A'
  48   1.0000      -0.409869       -11.1531   43-A'
  49   1.0000      -0.393237       -10.7005   44-A'
  50   1.0000      -0.385995       -10.5035   45-A'
  51   1.0000      -0.338828        -9.2200   46-A'
  52   1.0000      -0.328436        -8.9372   47-A'
  53   1.0000      -0.300062        -8.1651   48-A'
  54   1.0000      -0.296610        -8.0712   49-A'
  55   1.0000      -0.236690        -6.4407   50-A'
  56   1.0000      -0.230978        -6.2852   51-A'
  57   1.0000      -0.192254        -5.2315   52-A'
  58   1.0000      -0.190688        -5.1889   53-A'
  59   1.0000      -0.184338        -5.0161   54-A'
  60   1.0000      -0.179097        -4.8735   55-A'
  61   1.0000      -0.145447        -3.9578   56-A'
  62   1.0000      -0.141978        -3.8634   57-A'
  63   1.0000      -0.129532        -3.5248   58-A'
  64   1.0000      -0.118680        -3.2294    7-A"
  65   1.0000      -0.117853        -3.2069    8-A"
  66   1.0000      -0.107869        -2.9353   59-A'
  67   1.0000      -0.081063        -2.2058   60-A'
  68   1.0000      -0.070240        -1.9113   61-A'
  69   1.0000      -0.066582        -1.8118   62-A'
  70   1.0000      -0.060070        -1.6346   63-A'
  71   1.0000      -0.040085        -1.0908    9-A"
  72   1.0000      -0.038488        -1.0473   10-A"
  73   1.0000      -0.032052        -0.8722   64-A'
  74   1.0000      -0.030045        -0.8176   65-A'
  75   1.0000      -0.027268        -0.7420   11-A"
  76   1.0000      -0.020375        -0.5544   12-A"
  77   1.0000      -0.003797        -0.1033   13-A"
  78   1.0000      -0.001491        -0.0406   66-A'
  79   1.0000       0.000506         0.0138   14-A"
  80   1.0000       0.017563         0.4779   67-A'
  81   1.0000       0.018095         0.4924   68-A'
  82   1.0000       0.034057         0.9267   69-A'
  83   1.0000       0.049133         1.3370   15-A"
  84   1.0000       0.051348         1.3972   16-A"
  85   1.0000       0.061503         1.6736   17-A"
  86   1.0000       0.086626         2.3572   18-A"
  87   1.0000       0.104270         2.8373   70-A'
  88   0.0000       0.178001         4.8437   71-A'
  89   0.0000       0.180348         4.9075   72-A'
  90   0.0000       0.194853         5.3022   73-A'
  91   0.0000       0.196107         5.3363   74-A'
  92   0.0000       0.199665         5.4332   19-A"

                 SPIN DOWN ORBITALS
  NO   OCC          E(Eh)            E(eV)    Irrep
   0   1.0000    -318.182047     -8658.1737    1-A'
   1   1.0000     -88.014806     -2395.0046    2-A'
   2   1.0000     -88.014400     -2394.9936    3-A'
   3   1.0000     -88.014264     -2394.9899    4-A'
   4   1.0000     -88.014100     -2394.9854    5-A'
   5   1.0000     -38.011551     -1034.3469    6-A'
   6   1.0000     -33.515406      -912.0005    7-A'
   7   1.0000     -33.514591      -911.9784    8-A'
   8   1.0000     -33.511608      -911.8972    1-A"
   9   1.0000      -9.841977      -267.8138    9-A'
  10   1.0000      -9.836557      -267.6663   10-A'
  11   1.0000      -9.835091      -267.6264   11-A'
  12   1.0000      -9.834418      -267.6081   12-A'
  13   1.0000      -9.833832      -267.5922   13-A'
  14   1.0000      -9.833484      -267.5827   14-A'
  15   1.0000      -9.832953      -267.5682   15-A'
  16   1.0000      -9.831199      -267.5205   16-A'
  17   1.0000      -9.817192      -267.1394   17-A'
  18   1.0000      -9.813922      -267.0504   18-A'
  19   1.0000      -9.799915      -266.6693   19-A'
  20   1.0000      -9.792427      -266.4655   20-A'
  21   1.0000      -7.583689      -206.3627   21-A'
  22   1.0000      -7.583502      -206.3576   22-A'
  23   1.0000      -7.583228      -206.3501   23-A'
  24   1.0000      -7.583177      -206.3487   24-A'
  25   1.0000      -5.506824      -149.8483   25-A'
  26   1.0000      -5.506456      -149.8383   26-A'
  27   1.0000      -5.506288      -149.8337   27-A'
  28   1.0000      -5.506151      -149.8300   28-A'
  29   1.0000      -5.500046      -149.6639   29-A'
  30   1.0000      -5.499925      -149.6606   30-A'
  31   1.0000      -5.499623      -149.6524   31-A'
  32   1.0000      -5.499618      -149.6522   32-A'
  33   1.0000      -5.499598      -149.6517    2-A"
  34   1.0000      -5.499509      -149.6492    3-A"
  35   1.0000      -5.499174      -149.6401    4-A"
  36   1.0000      -5.499173      -149.6401    5-A"
  37   1.0000      -3.991274      -108.6081   33-A'
  38   1.0000      -2.505742       -68.1847    6-A"
  39   1.0000      -2.504406       -68.1484   34-A'
  40   1.0000      -2.502838       -68.1057   35-A'
  41   1.0000      -0.593124       -16.1397   36-A'
  42   1.0000      -0.590799       -16.0765   37-A'
  43   1.0000      -0.506444       -13.7810   38-A'
  44   1.0000      -0.504172       -13.7192   39-A'
  45   1.0000      -0.499128       -13.5820   40-A'
  46   1.0000      -0.492946       -13.4137   41-A'
  47   1.0000      -0.409261       -11.1366   42-A'
  48   1.0000      -0.405735       -11.0406   43-A'
  49   1.0000      -0.390457       -10.6249   44-A'
  50   1.0000      -0.383122       -10.4253   45-A'
  51   1.0000      -0.337076        -9.1723   46-A'
  52   1.0000      -0.326828        -8.8934   47-A'
  53   1.0000      -0.298268        -8.1163   48-A'
  54   1.0000      -0.294398        -8.0110   49-A'
  55   1.0000      -0.236066        -6.4237   50-A'
  56   1.0000      -0.230221        -6.2646   51-A'
  57   1.0000      -0.191290        -5.2053   52-A'
  58   1.0000      -0.189763        -5.1637   53-A'
  59   1.0000      -0.183622        -4.9966   54-A'
  60   1.0000      -0.178228        -4.8498   55-A'
  61   1.0000      -0.144733        -3.9384   56-A'
  62   1.0000      -0.140551        -3.8246   57-A'
  63   1.0000      -0.128120        -3.4863   58-A'
  64   1.0000      -0.118508        -3.2248    7-A"
  65   1.0000      -0.117672        -3.2020    8-A"
  66   1.0000      -0.106787        -2.9058   59-A'
  67   1.0000      -0.079724        -2.1694   60-A'
  68   1.0000      -0.068789        -1.8719   61-A'
  69   1.0000      -0.059065        -1.6072   62-A'
  70   1.0000      -0.051490        -1.4011   63-A'
  71   1.0000      -0.038217        -1.0399    9-A"
  72   1.0000      -0.037472        -1.0197   10-A"
  73   1.0000      -0.024200        -0.6585   11-A"
  74   1.0000      -0.023210        -0.6316   64-A'
  75   1.0000      -0.019582        -0.5329   12-A"
  76   1.0000      -0.003228        -0.0878   65-A'
  77   1.0000       0.005909         0.1608   13-A"
  78   1.0000       0.009299         0.2530   66-A'
  79   1.0000       0.012818         0.3488   14-A"
  80   1.0000       0.024939         0.6786   67-A'
  81   1.0000       0.033333         0.9070   68-A'
  82   1.0000       0.042383         1.1533   69-A'
  83   1.0000       0.051989         1.4147   15-A"
  84   1.0000       0.056981         1.5505   16-A"
  85   1.0000       0.063365         1.7242   17-A"
  86   1.0000       0.090814         2.4712   18-A"
  87   0.0000       0.137347         3.7374   70-A'
  88   0.0000       0.179169         4.8754   71-A'
  89   0.0000       0.181509         4.9391   72-A'
  90   0.0000       0.195888         5.3304   73-A'
  91   0.0000       0.197712         5.3800   74-A'

MULLIKEN ATOMIC CHARGES AND SPIN POPULATIONS
--------------------------------------------
   0 Cu:    0.143573    0.375602
   1 S :   -0.439899    0.162085
   2 C :   -0.002725   -0.007571
   3 S :   -0.441167    0.161794
   4 C :   -0.018714   -0.007521
   5 S :   -0.409862    0.164097
   6 C :    0.035315   -0.007365
   7 S :   -0.404523    0.163612
   8 C :    0.039245   -0.007226
   9 C :   -0.011546   -0.000490
  10 C :   -0.555136   -0.002302
  11 C :   -0.284447   -0.000711
  12 H :    0.645527    0.002477
  13 C :   -0.086844   -0.001071
  14 H :   -0.093332    0.001352
  15 H :    0.205488    0.000458
  16 H :   -0.067427    0.001540
  17 C :   -0.293948   -0.002446
  18 C :   -0.022791   -0.000691
  19 C :   -0.221899   -0.000757
  20 H :    0.346157    0.002697
  21 C :   -0.096840   -0.001009
  22 H :   -0.057122    0.001337
  23 H :    0.127824    0.000715
  24 H :   -0.034906    0.001393
Sum of atomic charges         :   -2.0000000

LOEWDIN ATOMIC CHARGES AND SPIN POPULATIONS
-------------------------------------------
   0 Cu:   -0.893739    0.442354
   1 S :    0.019598    0.123583
   2 C :   -0.002990    0.005177
   3 S :    0.026484    0.123650
   4 C :    0.026159    0.005232
   5 S :   -0.000222    0.124838
   6 C :   -0.062902    0.005237
   7 S :   -0.007023    0.124572
   8 C :   -0.074145    0.005328
   9 C :    0.179781    0.003631
  10 C :    0.570259    0.004030
  11 C :    0.438858   -0.000212
  12 H :   -0.853501    0.005508
  13 C :    0.240119   -0.000088
  14 H :   -0.234642    0.006501
  15 H :   -0.548530    0.000069
  16 H :   -0.318294    0.000377
  17 C :    0.446821    0.003956
  18 C :    0.217488    0.003796
  19 C :    0.382898   -0.000173
  20 H :   -0.666290    0.005849
  21 C :    0.263178   -0.000100
  22 H :   -0.299370    0.006470
  23 H :   -0.494736    0.000121
  24 H :   -0.355261    0.000292

  Mayer bond orders larger than 0.100000
B(  0-Cu,  1-S ) :   0.7003 B(  0-Cu,  3-S ) :   0.6990 B(  0-Cu,  5-S ) :   0.7032
B(  0-Cu,  7-S ) :   0.7034 B(  1-S ,  2-C ) :   1.1898 B(  2-C ,  6-C ) :   1.2420
B(  2-C , 17-C ) :   1.3550 B(  3-S ,  4-C ) :   1.1946 B(  4-C ,  8-C ) :   1.2391
B(  4-C , 10-C ) :   1.3953 B(  5-S ,  6-C ) :   1.1818 B(  6-C , 18-C ) :   1.3178
B(  7-S ,  8-C ) :   1.1805 B(  8-C ,  9-C ) :   1.3243 B(  9-C , 13-C ) :   1.3637
B(  9-C , 14-H ) :   0.9776 B( 10-C , 11-C ) :   1.4671 B( 10-C , 12-H ) :   0.3590
B( 11-C , 13-C ) :   1.3534 B( 11-C , 15-H ) :   0.8766 B( 13-C , 16-H ) :   1.0139
B( 17-C , 19-C ) :   1.4125 B( 17-C , 20-H ) :   0.7466 B( 18-C , 21-C ) :   1.3571
B( 18-C , 22-H ) :   0.9957 B( 19-C , 21-C ) :   1.3443 B( 19-C , 23-H ) :   0.9348
B( 21-C , 24-H ) :   1.0105

FINAL SINGLE POINT ENERGY     -3686.693462568935

DIPOLE MOMENT
-------------
                                X             Y             Z
Electronic contribution:      1.49093       0.33943       0.00000
Nuclear contribution   :     -1.02068      -0.20414       0.00000
                        -----------------------------------------
Total Dipole Moment    :      0.47024       0.13529       0.00000
                        -----------------------------------------
Magnitude (a.u.)       :      0.48932
Magnitude (Debye)      :      1.24374

Rotational constants in cm-1:     0.033406     0.004804     0.004200
Rotational constants in MHz :  1001.490702   144.017445   125.911048

                             ****ORCA TERMINATED NORMALLY****
TOTAL RUN TIME: 0 days 6 hours 18 minutes 53 seconds 35 msec
