                         Program Version 5.0.4 -  RELEASE  -
|  1> ! RIJCOSX nofrozencore ReducedPop printbasis
|  2> ! M06L ano-rcc-dzp autoaux
|  3>
|  4> %maxcore 5000
|  5> %basis
|  6> PCDTrimBas overlap
|  7> PCDTrimAuxJ Coulomb
|  8> PCDTrimAuxJK Coulomb
|  9> PCDTrimAuxC Coulomb
| 10> PCDThresh -1
| 11> end
| 12>
| 13> %basis
| 14> newgto Cu "ano-rcc-tzp" end
| 15> newgto S "ano-rcc-tzp" end
| 16> end
| 17>
| 18> %pal
| 19> nprocs 12
| 20> end
| 21>
| 22> % sym SymThresh 1e-2 end
| 23> * xyz -2 2
| 24> Cu 3.753344136541927e-05 -5.9914549895288575e-05 -0.0001254491430425637
| 25> S 0.6791124359744326 2.0745823765459286 -0.7791897827640701
| 26> C 2.3803639766856213 2.149044992197497 -0.40073357573988555
| 27> S -2.151753941107045 0.33273982550230663 -0.7946425845630188
| 28> C -2.989114115367735 -1.1523864976660492 -0.426368134316269
| 29> S 2.1480052886506735 -0.3267558598315147 0.807171817724395
| 30> C 3.027479808665653 1.0911434258414852 0.2981373307616574
| 31> S -0.6828610884308038 -2.0685984108751367 0.7917190159254462
| 32> C -2.3419969801432114 -2.2102901443883765 0.27249841631225163
| 33> C -3.1260213674533905 -3.294406951015476 0.7145670011410762
| 34> C -4.3789340573879105 -1.2461498108459963 -0.6385674204238285
| 35> C -5.074625621966701 -2.428046674923649 -0.39508529415719246
| 36> H -4.905641168938274 -0.3667537353193508 -1.030076563824856
| 37> C -4.4414353790540995 -3.463182390946642 0.2887037320656968
| 38> H -2.6660629223088885 -4.0280060774105975 1.388580730865899
| 39> H -6.127986931917146 -2.4961521763142436 -0.6519081924330659
| 40> H -4.990808111390517 -4.355205903608798 0.5761922963201507
| 41> C 3.0904221318034093 3.351232049005084 -0.5955854629235501
| 42> C 4.343342259425828 1.302966803223751 0.7575298019230763
| 43> C 4.458415090889578 3.436077714291234 -0.3454555304987855
| 44> H 2.543828493631043 4.223128627049447 -0.9800329460080743
| 45> C 5.091596211090737 2.4009565608324523 0.3383639868352599
| 46> H 4.783401336392935 0.5618867947164845 1.4386452614346978
| 47> H 4.995806381365933 4.347227193741532 -0.5929001738366652
| 48> H 6.132981552807984 2.488179291472662 0.635212511361014
| 49> *
| 50>
| 51> % eprnmr
| 52> gtensor true
| 53> Nuclei = all H {aiso,adip,aorb,fgrad,rho}
| 54> Nuclei = all Cu {aiso,adip,aorb,fgrad,rho}
| 55> end
| 56>
| 57>                          ****END OF INPUT****

CARTESIAN COORDINATES (ANGSTROEM)
---------------------------------
  Cu    -0.000000    0.000000   -0.000144
  S      1.661931    1.615597    0.007191
  C      3.151642    0.711747   -0.073598
  S     -1.661931    1.615597    0.007191
  C     -3.151642    0.711747   -0.073598
  S      1.661931   -1.615597    0.007191
  C      3.151642   -0.711747   -0.073598
  S     -1.661931   -1.615597    0.007191
  C     -3.151642   -0.711747   -0.073598
  C     -4.385461   -1.378053    0.068283
  C     -4.385461    1.378053    0.068283
  C     -5.596188    0.696420   -0.032563
  H     -4.375044    2.463249    0.234487
  C     -5.596188   -0.696420   -0.032563
  H     -4.375044   -2.463249    0.234487
  H     -6.530201    1.250749   -0.009585
  H     -6.530201   -1.250749   -0.009585
  C      4.385461    1.378053    0.068283
  C      4.385461   -1.378053    0.068283
  C      5.596188    0.696420   -0.032563
  H      4.375044    2.463249    0.234487
  C      5.596188   -0.696420   -0.032563
  H      4.375044   -2.463249    0.234487
  H      6.530201    1.250749   -0.009585
  H      6.530201   -1.250749   -0.009585

 Total Charge           Charge          ....   -2
 Multiplicity           Mult            ....    2
 Number of Electrons    NEL             ....  175
 Basis Dimension        Dim             ....  475

ORBITAL ENERGIES
----------------
                 SPIN UP ORBITALS
  NO   OCC          E(Eh)            E(eV)    Irrep
   0   1.0000    -318.181359     -8658.1550    1-A1
   1   1.0000     -88.014569     -2394.9982    1-B1
   2   1.0000     -88.014557     -2394.9979    1-A2
   3   1.0000     -88.014554     -2394.9978    1-B2
   4   1.0000     -88.014520     -2394.9969    2-A1
   5   1.0000     -38.026598     -1034.7563    3-A1
   6   1.0000     -33.529731      -912.3904    2-B2
   7   1.0000     -33.528885      -912.3673    2-B1
   8   1.0000     -33.515124      -911.9929    4-A1
   9   1.0000      -9.833830      -267.5921    3-B1
  10   1.0000      -9.833824      -267.5919    5-A1
  11   1.0000      -9.833498      -267.5831    2-A2
  12   1.0000      -9.833496      -267.5830    3-B2
  13   1.0000      -9.824279      -267.3322    4-B1
  14   1.0000      -9.824279      -267.3322    6-A1
  15   1.0000      -9.823850      -267.3205    3-A2
  16   1.0000      -9.823850      -267.3205    4-B2
  17   1.0000      -9.818581      -267.1772    4-A2
  18   1.0000      -9.818580      -267.1771    5-B2
  19   1.0000      -9.818576      -267.1770    5-B1
  20   1.0000      -9.818575      -267.1770    7-A1
  21   1.0000      -7.583209      -206.3496    5-A2
  22   1.0000      -7.583208      -206.3496    6-B2
  23   1.0000      -7.583205      -206.3495    6-B1
  24   1.0000      -7.583193      -206.3492    8-A1
  25   1.0000      -5.506438      -149.8378    6-A2
  26   1.0000      -5.506438      -149.8378    7-B2
  27   1.0000      -5.506437      -149.8378    7-B1
  28   1.0000      -5.506437      -149.8378    9-A1
  29   1.0000      -5.501100      -149.6926    7-A2
  30   1.0000      -5.501100      -149.6926    8-B2
  31   1.0000      -5.501100      -149.6926    8-B1
  32   1.0000      -5.501100      -149.6925   10-A1
  33   1.0000      -5.499276      -149.6429    8-A2
  34   1.0000      -5.499276      -149.6429    9-B2
  35   1.0000      -5.499276      -149.6429    9-B1
  36   1.0000      -5.499276      -149.6429   11-A1
  37   1.0000      -4.024203      -109.5041   12-A1
  38   1.0000      -2.545628       -69.2701   10-B2
  39   1.0000      -2.544092       -69.2283   10-B1
  40   1.0000      -2.516705       -68.4830   13-A1
  41   1.0000      -0.588503       -16.0140   14-A1
  42   1.0000      -0.588383       -16.0107   11-B1
  43   1.0000      -0.504371       -13.7246   15-A1
  44   1.0000      -0.503274       -13.6948   12-B1
  45   1.0000      -0.488134       -13.2828   11-B2
  46   1.0000      -0.487873       -13.2757    9-A2
  47   1.0000      -0.409102       -11.1322   12-B2
  48   1.0000      -0.406498       -11.0614   10-A2
  49   1.0000      -0.387107       -10.5337   16-A1
  50   1.0000      -0.380436       -10.3522   13-B1
  51   1.0000      -0.320946        -8.7334   17-A1
  52   1.0000      -0.318266        -8.6605   14-B1
  53   1.0000      -0.298563        -8.1243   13-B2
  54   1.0000      -0.295065        -8.0291   11-A2
  55   1.0000      -0.232190        -6.3182   18-A1
  56   1.0000      -0.227031        -6.1778   15-B1
  57   1.0000      -0.188730        -5.1356   19-A1
  58   1.0000      -0.187754        -5.1090   16-B1
  59   1.0000      -0.177671        -4.8347   14-B2
  60   1.0000      -0.174690        -4.7535   12-A2
  61   1.0000      -0.145848        -3.9687   15-B2
  62   1.0000      -0.142786        -3.8854   13-A2
  63   1.0000      -0.131259        -3.5717   20-A1
  64   1.0000      -0.120048        -3.2667   17-B1
  65   1.0000      -0.117082        -3.1860   21-A1
  66   1.0000      -0.110393        -3.0040   18-B1
  67   1.0000      -0.086325        -2.3490   22-A1
  68   1.0000      -0.068525        -1.8647   16-B2
  69   1.0000      -0.064615        -1.7583   14-A2
  70   1.0000      -0.062648        -1.7047   19-B1
  71   1.0000      -0.038626        -1.0511   20-B1
  72   1.0000      -0.038437        -1.0459   23-A1
  73   1.0000      -0.031312        -0.8521   15-A2
  74   1.0000      -0.027871        -0.7584   24-A1
  75   1.0000      -0.024712        -0.6725   17-B2
  76   1.0000      -0.016789        -0.4568   16-A2
  77   1.0000      -0.001820        -0.0495   18-B2
  78   1.0000      -0.000773        -0.0210   25-A1
  79   1.0000       0.001057         0.0288   21-B1
  80   1.0000       0.018354         0.4994   26-A1
  81   1.0000       0.019575         0.5327   22-B1
  82   1.0000       0.034559         0.9404   19-B2
  83   1.0000       0.050869         1.3842   17-A2
  84   1.0000       0.052898         1.4394   20-B2
  85   1.0000       0.062410         1.6983   27-A1
  86   1.0000       0.087403         2.3784   23-B1
  87   1.0000       0.105217         2.8631   18-A2
  88   0.0000       0.180670         4.9163   28-A1
  89   0.0000       0.180946         4.9238   24-B1
  90   0.0000       0.196784         5.3548   19-A2
  91   0.0000       0.196944         5.3591   21-B2
  92   0.0000       0.198772         5.4089   29-A1

                 SPIN DOWN ORBITALS
  NO   OCC          E(Eh)            E(eV)    Irrep
   0   1.0000    -318.181185     -8658.1502    1-A1
   1   1.0000     -88.013500     -2394.9691    1-B1
   2   1.0000     -88.013488     -2394.9688    1-A2
   3   1.0000     -88.013484     -2394.9687    1-B2
   4   1.0000     -88.013451     -2394.9678    2-A1
   5   1.0000     -38.010719     -1034.3242    3-A1
   6   1.0000     -33.514562      -911.9776    2-B2
   7   1.0000     -33.513748      -911.9554    2-B1
   8   1.0000     -33.510795      -911.8751    4-A1
   9   1.0000      -9.833946      -267.5953    3-B1
  10   1.0000      -9.833940      -267.5951    5-A1
  11   1.0000      -9.833614      -267.5863    2-A2
  12   1.0000      -9.833612      -267.5862    3-B2
  13   1.0000      -9.824255      -267.3316    4-B1
  14   1.0000      -9.824255      -267.3316    6-A1
  15   1.0000      -9.823826      -267.3199    3-A2
  16   1.0000      -9.823826      -267.3199    4-B2
  17   1.0000      -9.818522      -267.1756    4-A2
  18   1.0000      -9.818521      -267.1755    5-B2
  19   1.0000      -9.818517      -267.1754    5-B1
  20   1.0000      -9.818516      -267.1754    7-A1
  21   1.0000      -7.582474      -206.3296    6-B2
  22   1.0000      -7.582474      -206.3296    5-A2
  23   1.0000      -7.582471      -206.3295    6-B1
  24   1.0000      -7.582459      -206.3292    8-A1
  25   1.0000      -5.505509      -149.8125    6-A2
  26   1.0000      -5.505509      -149.8125    7-B2
  27   1.0000      -5.505508      -149.8125    7-B1
  28   1.0000      -5.505508      -149.8125    9-A1
  29   1.0000      -5.498851      -149.6314    7-A2
  30   1.0000      -5.498851      -149.6314    8-B2
  31   1.0000      -5.498851      -149.6314    8-B1
  32   1.0000      -5.498851      -149.6313   10-A1
  33   1.0000      -5.498461      -149.6207    8-A2
  34   1.0000      -5.498460      -149.6207    9-B2
  35   1.0000      -5.498460      -149.6207    9-B1
  36   1.0000      -5.498460      -149.6207   11-A1
  37   1.0000      -3.990452      -108.5857   12-A1
  38   1.0000      -2.504989       -68.1642   13-A1
  39   1.0000      -2.503545       -68.1249   10-B2
  40   1.0000      -2.501988       -68.0826   10-B1
  41   1.0000      -0.588135       -16.0040   14-A1
  42   1.0000      -0.588026       -16.0010   11-B1
  43   1.0000      -0.503050       -13.6887   15-A1
  44   1.0000      -0.502024       -13.6608   12-B1
  45   1.0000      -0.487065       -13.2537   11-B2
  46   1.0000      -0.486830       -13.2473    9-A2
  47   1.0000      -0.405138       -11.0244   12-B2
  48   1.0000      -0.402435       -10.9508   10-A2
  49   1.0000      -0.383891       -10.4462   16-A1
  50   1.0000      -0.377282       -10.2664   13-B1
  51   1.0000      -0.319747        -8.7008   17-A1
  52   1.0000      -0.316751        -8.6192   14-B1
  53   1.0000      -0.296782        -8.0758   13-B2
  54   1.0000      -0.292856        -7.9690   11-A2
  55   1.0000      -0.231625        -6.3028   18-A1
  56   1.0000      -0.226340        -6.1590   15-B1
  57   1.0000      -0.187734        -5.1085   19-A1
  58   1.0000      -0.186849        -5.0844   16-B1
  59   1.0000      -0.177145        -4.8203   14-B2
  60   1.0000      -0.173819        -4.7299   12-A2
  61   1.0000      -0.145154        -3.9498   15-B2
  62   1.0000      -0.141220        -3.8428   13-A2
  63   1.0000      -0.130095        -3.5401   20-A1
  64   1.0000      -0.119684        -3.2568   17-B1
  65   1.0000      -0.116752        -3.1770   21-A1
  66   1.0000      -0.109659        -2.9840   18-B1
  67   1.0000      -0.085017        -2.3134   22-A1
  68   1.0000      -0.067044        -1.8244   16-B2
  69   1.0000      -0.060974        -1.6592   19-B1
  70   1.0000      -0.049990        -1.3603   14-A2
  71   1.0000      -0.036980        -1.0063   23-A1
  72   1.0000      -0.036621        -0.9965   20-B1
  73   1.0000      -0.021554        -0.5865   24-A1
  74   1.0000      -0.021186        -0.5765   17-B2
  75   1.0000      -0.015935        -0.4336   15-A2
  76   1.0000      -0.002627        -0.0715   16-A2
  77   1.0000       0.007538         0.2051   18-B2
  78   1.0000       0.010058         0.2737   25-A1
  79   1.0000       0.013308         0.3621   21-B1
  80   1.0000       0.026413         0.7187   22-B1
  81   1.0000       0.034161         0.9296   26-A1
  82   1.0000       0.042868         1.1665   19-B2
  83   1.0000       0.053681         1.4607   17-A2
  84   1.0000       0.058400         1.5892   20-B2
  85   1.0000       0.064257         1.7485   27-A1
  86   1.0000       0.091566         2.4916   23-B1
  87   0.0000       0.138237         3.7616   18-A2
  88   0.0000       0.181802         4.9471   28-A1
  89   0.0000       0.182086         4.9548   24-B1
  90   0.0000       0.198758         5.4085   19-A2
  91   0.0000       0.198849         5.4110   29-A1

MULLIKEN ATOMIC CHARGES AND SPIN POPULATIONS
--------------------------------------------
   0 Cu:    0.141073    0.375576
   1 S :   -0.418631    0.162920
   2 C :    0.019996   -0.007596
   3 S :   -0.418631    0.162920
   4 C :    0.019996   -0.007596
   5 S :   -0.418631    0.162920
   6 C :    0.019996   -0.007596
   7 S :   -0.418631    0.162920
   8 C :    0.019996   -0.007596
   9 C :   -0.084884   -0.001526
  10 C :   -0.084884   -0.001526
  11 C :   -0.136560   -0.000665
  12 H :    0.051531    0.001912
  13 C :   -0.136560   -0.000665
  14 H :    0.051531    0.001912
  15 H :    0.033280    0.001061
  16 H :    0.033280    0.001061
  17 C :   -0.084884   -0.001526
  18 C :   -0.084884   -0.001526
  19 C :   -0.136560   -0.000665
  20 H :    0.051531    0.001912
  21 C :   -0.136560   -0.000665
  22 H :    0.051531    0.001912
  23 H :    0.033280    0.001061
  24 H :    0.033280    0.001061
Sum of atomic charges         :   -2.0000000

LOEWDIN ATOMIC CHARGES AND SPIN POPULATIONS
-------------------------------------------
   0 Cu:   -0.894994    0.442278
   1 S :    0.005918    0.124148
   2 C :   -0.038583    0.005022
   3 S :    0.005918    0.124148
   4 C :   -0.038583    0.005022
   5 S :    0.005918    0.124148
   6 C :   -0.038583    0.005022
   7 S :    0.005918    0.124148
   8 C :   -0.038583    0.005022
   9 C :    0.302430    0.003934
  10 C :    0.302430    0.003934
  11 C :    0.309163    0.000008
  12 H :   -0.434697    0.006092
  13 C :    0.309163    0.000008
  14 H :   -0.434697    0.006092
  15 H :   -0.420482    0.000226
  16 H :   -0.420482    0.000226
  17 C :    0.302430    0.003934
  18 C :    0.302430    0.003934
  19 C :    0.309163    0.000008
  20 H :   -0.434697    0.006092
  21 C :    0.309163    0.000008
  22 H :   -0.434697    0.006092
  23 H :   -0.420482    0.000226
  24 H :   -0.420482    0.000226

  Mayer bond orders larger than 0.100000
B(  0-Cu,  1-S ) :   0.7009 B(  0-Cu,  3-S ) :   0.7009 B(  0-Cu,  5-S ) :   0.7009
B(  0-Cu,  7-S ) :   0.7009 B(  1-S ,  2-C ) :   1.1840 B(  2-C ,  6-C ) :   1.2469
B(  2-C , 17-C ) :   1.3165 B(  3-S ,  4-C ) :   1.1840 B(  4-C ,  8-C ) :   1.2469
B(  4-C , 10-C ) :   1.3165 B(  5-S ,  6-C ) :   1.1840 B(  6-C , 18-C ) :   1.3165
B(  7-S ,  8-C ) :   1.1840 B(  8-C ,  9-C ) :   1.3165 B(  9-C , 13-C ) :   1.3605
B(  9-C , 14-H ) :   0.9768 B( 10-C , 11-C ) :   1.3605 B( 10-C , 12-H ) :   0.9768
B( 11-C , 13-C ) :   1.3413 B( 11-C , 15-H ) :   0.9878 B( 13-C , 16-H ) :   0.9878
B( 17-C , 19-C ) :   1.3605 B( 17-C , 20-H ) :   0.9768 B( 18-C , 21-C ) :   1.3605
B( 18-C , 22-H ) :   0.9768 B( 19-C , 21-C ) :   1.3413 B( 19-C , 23-H ) :   0.9878
B( 21-C , 24-H ) :   0.9878

FINAL SINGLE POINT ENERGY     -3686.918065907922

DIPOLE MOMENT
-------------
                                X             Y             Z
Electronic contribution:     -0.00000      -0.00000      -0.71777
Nuclear contribution   :     -0.00000       0.00000       0.84390
                        -----------------------------------------
Total Dipole Moment    :     -0.00000       0.00000       0.12613
                        -----------------------------------------
Magnitude (a.u.)       :      0.12613
Magnitude (Debye)      :      0.32060

Rotational constants in cm-1:     0.033372     0.004803     0.004200
Rotational constants in MHz :  1000.476511   143.986955   125.919618

                             ****ORCA TERMINATED NORMALLY****
TOTAL RUN TIME: 0 days 6 hours 50 minutes 15 seconds 691 msec
