                         Program Version 5.0.4 -  RELEASE  -
|  1> ! RIJCOSX nofrozencore ReducedPop printbasis
|  2> ! M06L ano-rcc-dzp autoaux
|  3>
|  4> %maxcore 5000
|  5> %basis
|  6> PCDTrimBas overlap
|  7> PCDTrimAuxJ Coulomb
|  8> PCDTrimAuxJK Coulomb
|  9> PCDTrimAuxC Coulomb
| 10> PCDThresh -1
| 11> end
| 12>
| 13> %basis
| 14> newgto Cu "ano-rcc-tzp" end
| 15> newgto S "ano-rcc-tzp" end
| 16> end
| 17>
| 18> %pal
| 19> nprocs 12
| 20> end
| 21>
| 22> % sym SymThresh 1e-2 end
| 23> * xyz -2 2
| 24> Cu 0.0507131187507383 0.021240995790922253 0.02058543306281258
| 25> S -1.2292878654612667 0.3960186654227479 -2.0496189369274154
| 26> C -0.2272131620607263 1.5215760910589793 -2.8444129321336313
| 27> S -1.5928026620370952 -1.5813427769506077 0.9096994473933047
| 28> C -0.8731281719872279 -1.9840414121402012 2.40047247838357
| 29> S 1.53717214203935 1.4271914005069755 -0.7095336957940012
| 30> C 0.9988900896526909 2.0165787792047336 -2.315143166880352
| 31> S 1.2258235385604193 -0.2661356132808009 1.8246426807459768
| 32> C 0.3610929197811682 -1.4447229420584853 2.863386702118103
| 33> C 0.7332177500919521 -1.9447792048935093 4.1310109539777145
| 34> C -1.6406446760150426 -2.9097631789835843 3.117538335776938
| 35> C -1.2488278991165107 -3.3763279165912596 4.350183694021525
| 36> H -2.563885814015607 -3.236334546900572 2.6404267441149347
| 37> C -0.04656833137584068 -2.87671327468924 4.8449233254471205
| 38> H 1.6629219860482092 -1.6049888292490377 4.592851523423905
| 39> H -1.8437093162062084 -4.0944205921520505 4.9069675672868165
| 40> H 0.3142967076935031 -3.2092719953779003 5.814817656314355
| 41> C -0.7536018207583298 1.903543548646417 -4.08362365679862
| 42> C 1.6338869841134316 2.9391972898450995 -3.1752053538284635
| 43> C -0.10881493263077552 2.804959778708106 -4.896638965345855
| 44> H -1.7011256062088655 1.444924186109399 -4.363120288638123
| 45> C 1.0959771977363137 3.3176297302223468 -4.421289652186663
| 46> H 2.583730417001478 3.3881789842119527 -2.876707014670738
| 47> H -0.5168679571529331 3.1017746430036413 -5.8584861601354135
| 48> H 1.6493433918937541 4.034456248253153 -5.022370409123316
| 49> *
| 50>
| 51> % eprnmr
| 52> gtensor true
| 53> Nuclei = all H {aiso,adip,aorb,fgrad,rho}
| 54> Nuclei = all Cu {aiso,adip,aorb,fgrad,rho}
| 55> end
| 56>
| 57>                          ****END OF INPUT****

CARTESIAN COORDINATES (ANGSTROEM)
---------------------------------
  Cu     0.000000   -0.000000    0.058709
  S      0.000000   -1.788831   -1.633141
  C      0.000000   -3.170780   -0.636731
  S      0.000000    1.788831   -1.633141
  C      0.000000    3.170780   -0.636731
  S      0.000000   -1.531857    1.598880
  C      0.000000   -3.130677    0.786947
  S      0.000000    1.531857    1.598880
  C      0.000000    3.130677    0.786947
  C      0.000000    4.417161    1.369819
  C      0.000000    4.353490   -1.385479
  C      0.000000    5.590431   -0.785535
  H      0.000000    4.234035   -2.468154
  C      0.000000    5.602187    0.607275
  H      0.000000    4.515914    2.457589
  H      0.000000    6.508470   -1.365929
  H      0.000000    6.551691    1.136308
  C      0.000000   -4.353490   -1.385479
  C      0.000000   -4.417161    1.369819
  C      0.000000   -5.590431   -0.785535
  H      0.000000   -4.234035   -2.468154
  C      0.000000   -5.602187    0.607275
  H      0.000000   -4.515914    2.457589
  H      0.000000   -6.508470   -1.365929
  H      0.000000   -6.551691    1.136308

 Total Charge           Charge          ....   -2
 Multiplicity           Mult            ....    2
 Number of Electrons    NEL             ....  175
 Basis Dimension        Dim             ....  475

ORBITAL ENERGIES
----------------
                 SPIN UP ORBITALS
  NO   OCC          E(Eh)            E(eV)    Irrep
   0   1.0000    -318.183540     -8658.2143    1-A1
   1   1.0000     -88.021556     -2395.1883    1-B2
   2   1.0000     -88.021526     -2395.1875    2-A1
   3   1.0000     -88.007387     -2394.8027    2-B2
   4   1.0000     -88.007364     -2394.8021    3-A1
   5   1.0000     -38.028892     -1034.8188    4-A1
   6   1.0000     -33.531963      -912.4511    5-A1
   7   1.0000     -33.530999      -912.4249    3-B2
   8   1.0000     -33.517518      -912.0580    1-B1
   9   1.0000      -9.837724      -267.6981    4-B2
  10   1.0000      -9.837719      -267.6979    6-A1
  11   1.0000      -9.828156      -267.4377    5-B2
  12   1.0000      -9.828152      -267.4376    7-A1
  13   1.0000      -9.823901      -267.3219    6-B2
  14   1.0000      -9.823900      -267.3219    8-A1
  15   1.0000      -9.823589      -267.3134    7-B2
  16   1.0000      -9.823589      -267.3134    9-A1
  17   1.0000      -9.823234      -267.3038    8-B2
  18   1.0000      -9.823233      -267.3038   10-A1
  19   1.0000      -9.811774      -266.9919    9-B2
  20   1.0000      -9.811773      -266.9919   11-A1
  21   1.0000      -7.589295      -206.5152   10-B2
  22   1.0000      -7.589287      -206.5150   12-A1
  23   1.0000      -7.577223      -206.1867   11-B2
  24   1.0000      -7.577218      -206.1866   13-A1
  25   1.0000      -5.513041      -150.0175   14-A1
  26   1.0000      -5.513041      -150.0175   12-B2
  27   1.0000      -5.507044      -149.8543   13-B2
  28   1.0000      -5.507044      -149.8543   15-A1
  29   1.0000      -5.505132      -149.8023    1-A2
  30   1.0000      -5.505132      -149.8023    2-B1
  31   1.0000      -5.500053      -149.6641   14-B2
  32   1.0000      -5.500053      -149.6641   16-A1
  33   1.0000      -5.495246      -149.5333   15-B2
  34   1.0000      -5.495246      -149.5332   17-A1
  35   1.0000      -5.493397      -149.4829    2-A2
  36   1.0000      -5.493397      -149.4829    3-B1
  37   1.0000      -4.026115      -109.5562   18-A1
  38   1.0000      -2.547672       -69.3257   19-A1
  39   1.0000      -2.545741       -69.2731   16-B2
  40   1.0000      -2.518669       -68.5365    4-B1
  41   1.0000      -0.589472       -16.0404   20-A1
  42   1.0000      -0.589351       -16.0371   17-B2
  43   1.0000      -0.504638       -13.7319   21-A1
  44   1.0000      -0.503529       -13.7017   18-B2
  45   1.0000      -0.489924       -13.3315   22-A1
  46   1.0000      -0.489584       -13.3223   19-B2
  47   1.0000      -0.411432       -11.1956   23-A1
  48   1.0000      -0.406626       -11.0649   20-B2
  49   1.0000      -0.386422       -10.5151   24-A1
  50   1.0000      -0.379693       -10.3320   21-B2
  51   1.0000      -0.323717        -8.8088   25-A1
  52   1.0000      -0.319738        -8.7005   22-B2
  53   1.0000      -0.298108        -8.1119   26-A1
  54   1.0000      -0.295014        -8.0277   23-B2
  55   1.0000      -0.231958        -6.3119   27-A1
  56   1.0000      -0.226632        -6.1670   24-B2
  57   1.0000      -0.188913        -5.1406   28-A1
  58   1.0000      -0.188045        -5.1170   25-B2
  59   1.0000      -0.177820        -4.8387   29-A1
  60   1.0000      -0.174158        -4.7391   26-B2
  61   1.0000      -0.151306        -4.1172   30-A1
  62   1.0000      -0.144089        -3.9209   27-B2
  63   1.0000      -0.127410        -3.4670   31-A1
  64   1.0000      -0.116774        -3.1776    5-B1
  65   1.0000      -0.116651        -3.1742    3-A2
  66   1.0000      -0.111227        -3.0266   28-B2
  67   1.0000      -0.090331        -2.4580   32-A1
  68   1.0000      -0.074433        -2.0254   29-B2
  69   1.0000      -0.064095        -1.7441   33-A1
  70   1.0000      -0.055500        -1.5102   30-B2
  71   1.0000      -0.039053        -1.0627    4-A2
  72   1.0000      -0.038104        -1.0369    6-B1
  73   1.0000      -0.032729        -0.8906   34-A1
  74   1.0000      -0.029192        -0.7944   31-B2
  75   1.0000      -0.027101        -0.7375    7-B1
  76   1.0000      -0.019142        -0.5209    5-A2
  77   1.0000      -0.005085        -0.1384    8-B1
  78   1.0000      -0.002366        -0.0644   35-A1
  79   1.0000      -0.001211        -0.0330    6-A2
  80   1.0000       0.017816         0.4848   36-A1
  81   1.0000       0.021944         0.5971   32-B2
  82   1.0000       0.036893         1.0039   37-A1
  83   1.0000       0.049615         1.3501    9-B1
  84   1.0000       0.051829         1.4103    7-A2
  85   1.0000       0.066028         1.7967   10-B1
  86   1.0000       0.088644         2.4121    8-A2
  87   1.0000       0.106364         2.8943   33-B2
  88   0.0000       0.181353         4.9349   38-A1
  89   0.0000       0.181470         4.9381   34-B2
  90   0.0000       0.196699         5.3525   35-B2
  91   0.0000       0.196809         5.3554   39-A1
  92   0.0000       0.199698         5.4340   11-B1

                 SPIN DOWN ORBITALS
  NO   OCC          E(Eh)            E(eV)    Irrep
   0   1.0000    -318.183360     -8658.2094    1-A1
   1   1.0000     -88.020524     -2395.1602    1-B2
   2   1.0000     -88.020494     -2395.1594    2-A1
   3   1.0000     -88.006246     -2394.7717    2-B2
   4   1.0000     -88.006223     -2394.7711    3-A1
   5   1.0000     -38.013549     -1034.4013    4-A1
   6   1.0000     -33.517304      -912.0522    5-A1
   7   1.0000     -33.516357      -912.0264    3-B2
   8   1.0000     -33.513318      -911.9438    1-B1
   9   1.0000      -9.837840      -267.7012    4-B2
  10   1.0000      -9.837835      -267.7011    6-A1
  11   1.0000      -9.828267      -267.4407    5-B2
  12   1.0000      -9.828263      -267.4406    7-A1
  13   1.0000      -9.823865      -267.3210    6-B2
  14   1.0000      -9.823865      -267.3209    8-A1
  15   1.0000      -9.823543      -267.3122    7-B2
  16   1.0000      -9.823542      -267.3122    9-A1
  17   1.0000      -9.823198      -267.3028    8-B2
  18   1.0000      -9.823198      -267.3028   10-A1
  19   1.0000      -9.811689      -266.9896    9-B2
  20   1.0000      -9.811688      -266.9896   11-A1
  21   1.0000      -7.588589      -206.4960   10-B2
  22   1.0000      -7.588581      -206.4958   12-A1
  23   1.0000      -7.576432      -206.1652   11-B2
  24   1.0000      -7.576426      -206.1650   13-A1
  25   1.0000      -5.512144      -149.9931   14-A1
  26   1.0000      -5.512144      -149.9931   12-B2
  27   1.0000      -5.504907      -149.7961   13-B2
  28   1.0000      -5.504907      -149.7961   15-A1
  29   1.0000      -5.504339      -149.7807    1-A2
  30   1.0000      -5.504339      -149.7807    2-B1
  31   1.0000      -5.499062      -149.6371   14-B2
  32   1.0000      -5.499062      -149.6371   16-A1
  33   1.0000      -5.492802      -149.4667   15-B2
  34   1.0000      -5.492802      -149.4667   17-A1
  35   1.0000      -5.492528      -149.4593    2-A2
  36   1.0000      -5.492528      -149.4593    3-B1
  37   1.0000      -3.993816      -108.6772   18-A1
  38   1.0000      -2.507384       -68.2294   19-A1
  39   1.0000      -2.507327       -68.2278    4-B1
  40   1.0000      -2.505408       -68.1756   16-B2
  41   1.0000      -0.589067       -16.0293   20-A1
  42   1.0000      -0.588957       -16.0263   17-B2
  43   1.0000      -0.503284       -13.6951   21-A1
  44   1.0000      -0.502246       -13.6668   18-B2
  45   1.0000      -0.488803       -13.3010   22-A1
  46   1.0000      -0.488507       -13.2930   19-B2
  47   1.0000      -0.407292       -11.0830   23-A1
  48   1.0000      -0.402465       -10.9516   20-B2
  49   1.0000      -0.383265       -10.4292   24-A1
  50   1.0000      -0.376485       -10.2447   21-B2
  51   1.0000      -0.322604        -8.7785   25-A1
  52   1.0000      -0.318123        -8.6566   22-B2
  53   1.0000      -0.296324        -8.0634   26-A1
  54   1.0000      -0.292819        -7.9680   23-B2
  55   1.0000      -0.231278        -6.2934   27-A1
  56   1.0000      -0.225828        -6.1451   24-B2
  57   1.0000      -0.187907        -5.1132   28-A1
  58   1.0000      -0.187117        -5.0917   25-B2
  59   1.0000      -0.177184        -4.8214   29-A1
  60   1.0000      -0.173188        -4.7127   26-B2
  61   1.0000      -0.150472        -4.0946   30-A1
  62   1.0000      -0.142443        -3.8761   27-B2
  63   1.0000      -0.126218        -3.4346   31-A1
  64   1.0000      -0.116594        -3.1727    5-B1
  65   1.0000      -0.116450        -3.1688    3-A2
  66   1.0000      -0.110254        -3.0002   28-B2
  67   1.0000      -0.088906        -2.4193   32-A1
  68   1.0000      -0.063036        -1.7153   29-B2
  69   1.0000      -0.062535        -1.7017   33-A1
  70   1.0000      -0.048998        -1.3333   30-B2
  71   1.0000      -0.036875        -1.0034    6-B1
  72   1.0000      -0.036866        -1.0032    4-A2
  73   1.0000      -0.025640        -0.6977   34-A1
  74   1.0000      -0.023593        -0.6420    7-B1
  75   1.0000      -0.018197        -0.4952    5-A2
  76   1.0000      -0.004854        -0.1321   31-B2
  77   1.0000       0.003058         0.0832    8-B1
  78   1.0000       0.008276         0.2252   35-A1
  79   1.0000       0.009996         0.2720    6-A2
  80   1.0000       0.030376         0.8266   32-B2
  81   1.0000       0.032373         0.8809   36-A1
  82   1.0000       0.045297         1.2326   37-A1
  83   1.0000       0.055089         1.4990    7-A2
  84   1.0000       0.055240         1.5031    9-B1
  85   1.0000       0.068271         1.8578   10-B1
  86   1.0000       0.092794         2.5251    8-A2
  87   0.0000       0.137939         3.7535   33-B2
  88   0.0000       0.182709         4.9718   38-A1
  89   0.0000       0.182814         4.9746   34-B2
  90   0.0000       0.198930         5.4132   35-B2
  91   0.0000       0.199076         5.4171   39-A1

MULLIKEN ATOMIC CHARGES AND SPIN POPULATIONS
--------------------------------------------
   0 Cu:    0.140458    0.363044
   1 S :   -0.423775    0.168354
   2 C :    0.071270   -0.007542
   3 S :   -0.423775    0.168354
   4 C :    0.071270   -0.007542
   5 S :   -0.405981    0.162789
   6 C :   -0.051375   -0.007381
   7 S :   -0.405981    0.162789
   8 C :   -0.051375   -0.007381
   9 C :   -0.102759   -0.000784
  10 C :   -0.065681   -0.000905
  11 C :   -0.135942    0.000077
  12 H :    0.064983    0.002356
  13 C :   -0.139117   -0.001854
  14 H :    0.056770    0.001023
  15 H :    0.023294    0.000914
  16 H :    0.038083    0.001431
  17 C :   -0.065681   -0.000905
  18 C :   -0.102759   -0.000784
  19 C :   -0.135942    0.000077
  20 H :    0.064983    0.002356
  21 C :   -0.139117   -0.001854
  22 H :    0.056770    0.001023
  23 H :    0.023294    0.000914
  24 H :    0.038083    0.001431
Sum of atomic charges         :   -2.0000000

LOEWDIN ATOMIC CHARGES AND SPIN POPULATIONS
-------------------------------------------
   0 Cu:   -0.895135    0.431048
   1 S :    0.005080    0.133127
   2 C :   -0.058881    0.003797
   3 S :    0.005080    0.133127
   4 C :   -0.058881    0.003797
   5 S :    0.017505    0.118800
   6 C :   -0.005831    0.006142
   7 S :    0.017505    0.118800
   8 C :   -0.005831    0.006142
   9 C :    0.309401    0.003296
  10 C :    0.297346    0.005702
  11 C :    0.311723    0.000485
  12 H :   -0.470906    0.009515
  13 C :    0.310358   -0.000592
  14 H :   -0.430453    0.003739
  15 H :   -0.407412    0.000178
  16 H :   -0.430361    0.000286
  17 C :    0.297346    0.005702
  18 C :    0.309401    0.003296
  19 C :    0.311723    0.000485
  20 H :   -0.470906    0.009515
  21 C :    0.310358   -0.000592
  22 H :   -0.430453    0.003739
  23 H :   -0.407412    0.000178
  24 H :   -0.430361    0.000286

  Mayer bond orders larger than 0.100000
B(  0-Cu,  1-S ) :   0.6054 B(  0-Cu,  3-S ) :   0.6054 B(  0-Cu,  5-S ) :   0.8245
B(  0-Cu,  7-S ) :   0.8245 B(  1-S ,  2-C ) :   1.2085 B(  2-C ,  6-C ) :   1.2484
B(  2-C , 17-C ) :   1.2976 B(  3-S ,  4-C ) :   1.2085 B(  4-C ,  8-C ) :   1.2484
B(  4-C , 10-C ) :   1.2976 B(  5-S ,  6-C ) :   1.1527 B(  6-C , 18-C ) :   1.3306
B(  7-S ,  8-C ) :   1.1527 B(  8-C ,  9-C ) :   1.3306 B(  9-C , 13-C ) :   1.3596
B(  9-C , 14-H ) :   0.9769 B( 10-C , 11-C ) :   1.3687 B( 10-C , 12-H ) :   0.9643
B( 11-C , 13-C ) :   1.3357 B( 11-C , 15-H ) :   0.9922 B( 13-C , 16-H ) :   0.9854
B( 17-C , 19-C ) :   1.3687 B( 17-C , 20-H ) :   0.9643 B( 18-C , 21-C ) :   1.3596
B( 18-C , 22-H ) :   0.9769 B( 19-C , 21-C ) :   1.3357 B( 19-C , 23-H ) :   0.9922
B( 21-C , 24-H ) :   0.9854

FINAL SINGLE POINT ENERGY     -3686.898351207716

DIPOLE MOMENT
-------------
                                X             Y             Z
Electronic contribution:      0.00000      -0.00000       0.79735
Nuclear contribution   :      0.00000       0.00000      -0.75333
                        -----------------------------------------
Total Dipole Moment    :      0.00000      -0.00000       0.04402
                        -----------------------------------------
Magnitude (a.u.)       :      0.04402
Magnitude (Debye)      :      0.11189

Rotational constants in cm-1:     0.033351     0.004802     0.004198
Rotational constants in MHz :   999.840831   143.964330   125.844349

                             ****ORCA TERMINATED NORMALLY****
TOTAL RUN TIME: 0 days 6 hours 49 minutes 36 seconds 256 msec
