                         Program Version 5.0.4 -  RELEASE  -
|  1> ! RIJCOSX nofrozencore ReducedPop printbasis
|  2> ! M06L ano-rcc-dzp autoaux
|  3>
|  4> %maxcore 5000
|  5> %basis
|  6> PCDTrimBas overlap
|  7> PCDTrimAuxJ Coulomb
|  8> PCDTrimAuxJK Coulomb
|  9> PCDTrimAuxC Coulomb
| 10> PCDThresh -1
| 11> end
| 12>
| 13> %basis
| 14> newgto Cu "ano-rcc-tzp" end
| 15> newgto S "ano-rcc-tzp" end
| 16> end
| 17>
| 18> %pal
| 19> nprocs 12
| 20> end
| 21>
| 22> % sym SymThresh 1e-2 end
| 23> * xyz -2 2
| 24> Cu -2.8722800558123797e-06 3.5255007972233086e-06 -2.078665776347957e-06
| 25> S -0.015567181339769146 -1.177855611228256 -1.9961590935517255
| 26> C -1.342550373153932 -2.2993749940346015 -1.8323906407613013
| 27> S 1.901740388983773 1.1670683895302323 -0.6273593704896404
| 28> C 2.170784425492585 2.2979546515578244 0.6746419560067288
| 29> S -1.9014836071467833 -1.167383569301504 0.6275452032100459
| 30> C -2.1733878601351733 -2.294759137635221 -0.6765260586664107
| 31> S 0.015823963176758774 1.1775404314569844 1.996344926272131
| 32> C 1.3399446406872992 2.302573328357843 1.8305048751689985
| 33> C 1.7630318736151847 3.0520866797392885 2.9522099243153326
| 34> C 3.371646048333592 3.0431685617868713 0.7142641725625773
| 35> C 3.5939709404892692 3.9955324984293585 1.7097274585680378
| 36> H 4.120190100094458 2.8835765932046615 -0.08350706228703811
| 37> C 2.7810071429809446 4.000070859076451 2.840688348245254
| 38> H 1.2447756195101256 2.899566622370605 3.9167577325458245
| 39> H 4.469248102295226 4.636745459723555 1.653638918381676
| 40> H 3.009214756787506 4.644866554669345 3.684826728307783
| 41> C -1.7606139888370314 -3.055053032109914 -2.950460109521459
| 42> C -3.3692413748980363 -3.0461215252547835 -0.7125239075179625
| 43> C -2.7821669696674816 -3.998647261854532 -2.8415277134857435
| 44> H -1.2365706643026921 -2.9096375679479527 -3.9108198158891088
| 45> C -3.595111810127438 -3.9941321695127017 -1.7105531046144031
| 46> H -4.111969634001894 -2.8936679906867915 0.08945620979560232
| 47> H -3.0095019755896213 -4.644513302730602 -3.685035822610636
| 48> H -4.469522683065096 -4.63640771998832 -1.653838866555113
| 49> *
| 50>
| 51> % eprnmr
| 52> gtensor true
| 53> Nuclei = all H {aiso,adip,aorb,fgrad,rho}
| 54> Nuclei = all Cu {aiso,adip,aorb,fgrad,rho}
| 55> end
| 56>
| 57>                          ****END OF INPUT****

CARTESIAN COORDINATES (ANGSTROEM)
---------------------------------
  Cu    -0.000004    0.000004    0.000000
  S     -1.179090   -1.171252   -1.615597
  C     -2.162321   -2.294560   -0.711747
  S      1.179406    1.170936   -1.615597
  C      2.159110    2.297761   -0.711747
  S     -1.179090   -1.171252    1.615597
  C     -2.162321   -2.294560    0.711747
  S      1.179406    1.170936    1.615597
  C      2.159110    2.297761    0.711747
  C      3.158212    3.043964    1.378053
  C      3.158212    3.043964   -1.378053
  C      3.920841    3.993254   -0.696420
  H      3.300197    2.887741   -2.463249
  C      3.920841    3.993254    0.696420
  H      3.300197    2.887741    2.463249
  H      4.599581    4.635471   -1.250749
  H      4.599581    4.635471    1.250749
  C     -3.155239   -3.046927   -1.378053
  C     -3.155239   -3.046927    1.378053
  C     -3.922259   -3.991841   -0.696420
  H     -3.290071   -2.897834   -2.463249
  C     -3.922259   -3.991841    0.696420
  H     -3.290071   -2.897834    2.463249
  H     -4.599928   -4.635125   -1.250748
  H     -4.599928   -4.635125    1.250748

 Total Charge           Charge          ....   -2
 Multiplicity           Mult            ....    2
 Number of Electrons    NEL             ....  175
 Basis Dimension        Dim             ....  475

ORBITAL ENERGIES
----------------
                 SPIN UP ORBITALS
  NO   OCC          E(Eh)            E(eV)    Irrep
   0   1.0000    -318.181404     -8658.1562    1-A'
   1   1.0000     -88.014813     -2395.0048    1-A"
   2   1.0000     -88.014813     -2395.0048    2-A'
   3   1.0000     -88.014765     -2395.0035    2-A"
   4   1.0000     -88.014744     -2395.0029    3-A'
   5   1.0000     -38.026645     -1034.7576    4-A'
   6   1.0000     -33.529778      -912.3916    3-A"
   7   1.0000     -33.528929      -912.3686    5-A'
   8   1.0000     -33.515173      -911.9942    6-A'
   9   1.0000      -9.834685      -267.6154    7-A'
  10   1.0000      -9.834481      -267.6098    8-A'
  11   1.0000      -9.834356      -267.6064    4-A"
  12   1.0000      -9.834152      -267.6009    5-A"
  13   1.0000      -9.824747      -267.3450    9-A'
  14   1.0000      -9.824654      -267.3424   10-A'
  15   1.0000      -9.824319      -267.3333    6-A"
  16   1.0000      -9.824225      -267.3308    7-A"
  17   1.0000      -9.820053      -267.2172    8-A"
  18   1.0000      -9.820048      -267.2171   11-A'
  19   1.0000      -9.819714      -267.2080    9-A"
  20   1.0000      -9.819709      -267.2079   12-A'
  21   1.0000      -7.583426      -206.3555   10-A"
  22   1.0000      -7.583418      -206.3553   13-A'
  23   1.0000      -7.583387      -206.3545   11-A"
  24   1.0000      -7.583377      -206.3542   14-A'
  25   1.0000      -5.506684      -149.8445   12-A"
  26   1.0000      -5.506684      -149.8445   15-A'
  27   1.0000      -5.506642      -149.8433   13-A"
  28   1.0000      -5.506641      -149.8433   16-A'
  29   1.0000      -5.501307      -149.6982   14-A"
  30   1.0000      -5.501307      -149.6982   17-A'
  31   1.0000      -5.501269      -149.6971   15-A"
  32   1.0000      -5.501268      -149.6971   18-A'
  33   1.0000      -5.499484      -149.6486   16-A"
  34   1.0000      -5.499484      -149.6486   19-A'
  35   1.0000      -5.499445      -149.6475   17-A"
  36   1.0000      -5.499445      -149.6475   20-A'
  37   1.0000      -4.024262      -109.5057   21-A'
  38   1.0000      -2.545696       -69.2719   18-A"
  39   1.0000      -2.544155       -69.2300   22-A'
  40   1.0000      -2.516752       -68.4843   23-A'
  41   1.0000      -0.588084       -16.0026   24-A'
  42   1.0000      -0.587899       -15.9975   25-A'
  43   1.0000      -0.504298       -13.7227   26-A'
  44   1.0000      -0.503200       -13.6928   27-A'
  45   1.0000      -0.487239       -13.2584   19-A"
  46   1.0000      -0.486856       -13.2480   20-A"
  47   1.0000      -0.408813       -11.1244   21-A"
  48   1.0000      -0.406211       -11.0536   22-A"
  49   1.0000      -0.386783       -10.5249   28-A'
  50   1.0000      -0.380087       -10.3427   29-A'
  51   1.0000      -0.320466        -8.7203   30-A'
  52   1.0000      -0.317784        -8.6473   31-A'
  53   1.0000      -0.297831        -8.1044   23-A"
  54   1.0000      -0.294349        -8.0096   24-A"
  55   1.0000      -0.231800        -6.3076   32-A'
  56   1.0000      -0.226722        -6.1694   33-A'
  57   1.0000      -0.188067        -5.1176   34-A'
  58   1.0000      -0.187008        -5.0888   35-A'
  59   1.0000      -0.177811        -4.8385   25-A"
  60   1.0000      -0.174837        -4.7576   26-A"
  61   1.0000      -0.145436        -3.9575   27-A"
  62   1.0000      -0.142366        -3.8740   28-A"
  63   1.0000      -0.131330        -3.5737   36-A'
  64   1.0000      -0.121176        -3.2974   37-A'
  65   1.0000      -0.117042        -3.1849   38-A'
  66   1.0000      -0.109483        -2.9792   39-A'
  67   1.0000      -0.086219        -2.3461   40-A'
  68   1.0000      -0.067836        -1.8459   29-A"
  69   1.0000      -0.064359        -1.7513   30-A"
  70   1.0000      -0.063067        -1.7161   41-A'
  71   1.0000      -0.040126        -1.0919   42-A'
  72   1.0000      -0.037111        -1.0098   43-A'
  73   1.0000      -0.031866        -0.8671   31-A"
  74   1.0000      -0.027876        -0.7585   44-A'
  75   1.0000      -0.023472        -0.6387   32-A"
  76   1.0000      -0.015656        -0.4260   33-A"
  77   1.0000      -0.001159        -0.0315   34-A"
  78   1.0000      -0.000942        -0.0256   45-A'
  79   1.0000       0.001438         0.0391   46-A'
  80   1.0000       0.018315         0.4984   47-A'
  81   1.0000       0.019233         0.5234   48-A'
  82   1.0000       0.034274         0.9326   35-A"
  83   1.0000       0.051229         1.3940   36-A"
  84   1.0000       0.053031         1.4431   37-A"
  85   1.0000       0.062297         1.6952   49-A'
  86   1.0000       0.087052         2.3688   50-A'
  87   1.0000       0.105198         2.8626   38-A"
  88   0.0000       0.180317         4.9067   51-A'
  89   0.0000       0.180442         4.9101   52-A'
  90   0.0000       0.196684         5.3520   39-A"
  91   0.0000       0.196921         5.3585   40-A"
  92   0.0000       0.197771         5.3816   53-A'

                 SPIN DOWN ORBITALS
  NO   OCC          E(Eh)            E(eV)    Irrep
   0   1.0000    -318.181229     -8658.1514    1-A'
   1   1.0000     -88.013743     -2394.9757    1-A"
   2   1.0000     -88.013743     -2394.9757    2-A'
   3   1.0000     -88.013696     -2394.9744    2-A"
   4   1.0000     -88.013675     -2394.9738    3-A'
   5   1.0000     -38.010752     -1034.3251    4-A'
   6   1.0000     -33.514595      -911.9785    3-A"
   7   1.0000     -33.513782      -911.9564    5-A'
   8   1.0000     -33.510838      -911.8763    6-A'
   9   1.0000      -9.834802      -267.6186    7-A'
  10   1.0000      -9.834597      -267.6130    8-A'
  11   1.0000      -9.834473      -267.6096    4-A"
  12   1.0000      -9.834268      -267.6040    5-A"
  13   1.0000      -9.824722      -267.3443    9-A'
  14   1.0000      -9.824629      -267.3417   10-A'
  15   1.0000      -9.824293      -267.3326    6-A"
  16   1.0000      -9.824200      -267.3301    7-A"
  17   1.0000      -9.819994      -267.2156    8-A"
  18   1.0000      -9.819990      -267.2155   11-A'
  19   1.0000      -9.819655      -267.2064    9-A"
  20   1.0000      -9.819651      -267.2063   12-A'
  21   1.0000      -7.582694      -206.3356   10-A"
  22   1.0000      -7.582685      -206.3354   13-A'
  23   1.0000      -7.582655      -206.3345   11-A"
  24   1.0000      -7.582645      -206.3343   14-A'
  25   1.0000      -5.505755      -149.8192   12-A"
  26   1.0000      -5.505754      -149.8192   15-A'
  27   1.0000      -5.505712      -149.8180   13-A"
  28   1.0000      -5.505711      -149.8180   16-A'
  29   1.0000      -5.499063      -149.6371   14-A"
  30   1.0000      -5.499062      -149.6371   17-A'
  31   1.0000      -5.499025      -149.6361   15-A"
  32   1.0000      -5.499025      -149.6361   18-A'
  33   1.0000      -5.498668      -149.6264   16-A"
  34   1.0000      -5.498668      -149.6264   19-A'
  35   1.0000      -5.498630      -149.6253   17-A"
  36   1.0000      -5.498630      -149.6253   20-A'
  37   1.0000      -3.990467      -108.5861   21-A'
  38   1.0000      -2.505029       -68.1653   22-A'
  39   1.0000      -2.503575       -68.1257   18-A"
  40   1.0000      -2.501981       -68.0824   23-A'
  41   1.0000      -0.587715       -15.9925   24-A'
  42   1.0000      -0.587536       -15.9877   25-A'
  43   1.0000      -0.502975       -13.6866   26-A'
  44   1.0000      -0.501947       -13.6587   27-A'
  45   1.0000      -0.486158       -13.2290   19-A"
  46   1.0000      -0.485790       -13.2190   20-A"
  47   1.0000      -0.404852       -11.0166   21-A"
  48   1.0000      -0.402145       -10.9429   22-A"
  49   1.0000      -0.383557       -10.4371   28-A'
  50   1.0000      -0.376917       -10.2564   29-A'
  51   1.0000      -0.319273        -8.6879   30-A'
  52   1.0000      -0.316271        -8.6062   31-A'
  53   1.0000      -0.296059        -8.0562   23-A"
  54   1.0000      -0.292145        -7.9497   24-A"
  55   1.0000      -0.231243        -6.2924   32-A'
  56   1.0000      -0.226038        -6.1508   33-A'
  57   1.0000      -0.187062        -5.0902   34-A'
  58   1.0000      -0.186096        -5.0639   35-A'
  59   1.0000      -0.177288        -4.8242   25-A"
  60   1.0000      -0.173958        -4.7336   26-A"
  61   1.0000      -0.144739        -3.9385   27-A"
  62   1.0000      -0.140771        -3.8306   28-A"
  63   1.0000      -0.130232        -3.5438   36-A'
  64   1.0000      -0.120809        -3.2874   37-A'
  65   1.0000      -0.116609        -3.1731   38-A'
  66   1.0000      -0.108765        -2.9596   39-A'
  67   1.0000      -0.084979        -2.3124   40-A'
  68   1.0000      -0.066387        -1.8065   29-A"
  69   1.0000      -0.061404        -1.6709   41-A'
  70   1.0000      -0.049800        -1.3551   30-A"
  71   1.0000      -0.037676        -1.0252   42-A'
  72   1.0000      -0.036155        -0.9838   43-A'
  73   1.0000      -0.021397        -0.5822   44-A'
  74   1.0000      -0.020000        -0.5442   31-A"
  75   1.0000      -0.014767        -0.4018   32-A"
  76   1.0000      -0.002923        -0.0795   33-A"
  77   1.0000       0.008220         0.2237   34-A"
  78   1.0000       0.009812         0.2670   45-A'
  79   1.0000       0.013716         0.3732   46-A'
  80   1.0000       0.026010         0.7078   47-A'
  81   1.0000       0.034105         0.9281   48-A'
  82   1.0000       0.042380         1.1532   35-A"
  83   1.0000       0.054162         1.4738   36-A"
  84   1.0000       0.058496         1.5918   37-A"
  85   1.0000       0.064156         1.7458   49-A'
  86   1.0000       0.091244         2.4829   50-A'
  87   0.0000       0.138254         3.7621   38-A"
  88   0.0000       0.181425         4.9368   51-A'
  89   0.0000       0.181551         4.9403   52-A'
  90   0.0000       0.197877         5.3845   53-A'
  91   0.0000       0.198632         5.4050   39-A"

MULLIKEN ATOMIC CHARGES AND SPIN POPULATIONS
--------------------------------------------
   0 Cu:    0.145680    0.375624
   1 S :   -0.417778    0.162785
   2 C :    0.018983   -0.007531
   3 S :   -0.416941    0.162826
   4 C :    0.018515   -0.007554
   5 S :   -0.417778    0.162785
   6 C :    0.018983   -0.007531
   7 S :   -0.416941    0.162826
   8 C :    0.018515   -0.007554
   9 C :   -0.080598   -0.001473
  10 C :   -0.080598   -0.001473
  11 C :   -0.136088   -0.000501
  12 H :    0.044096    0.001782
  13 C :   -0.136088   -0.000501
  14 H :    0.044096    0.001782
  15 H :    0.034582    0.001034
  16 H :    0.034582    0.001034
  17 C :   -0.081499   -0.001487
  18 C :   -0.081499   -0.001487
  19 C :   -0.136294   -0.000536
  20 H :    0.045892    0.001802
  21 C :   -0.136294   -0.000536
  22 H :    0.045892    0.001802
  23 H :    0.034288    0.001041
  24 H :    0.034288    0.001041
Sum of atomic charges         :   -2.0000000

LOEWDIN ATOMIC CHARGES AND SPIN POPULATIONS
-------------------------------------------
   0 Cu:   -0.895490    0.442618
   1 S :    0.004211    0.124118
   2 C :   -0.038703    0.004964
   3 S :    0.003792    0.124165
   4 C :   -0.038736    0.004944
   5 S :    0.004211    0.124118
   6 C :   -0.038703    0.004964
   7 S :    0.003792    0.124165
   8 C :   -0.038736    0.004944
   9 C :    0.300217    0.003948
  10 C :    0.300217    0.003948
  11 C :    0.307657    0.000105
  12 H :   -0.427225    0.005956
  13 C :    0.307657    0.000105
  14 H :   -0.427225    0.005956
  15 H :   -0.421785    0.000242
  16 H :   -0.421785    0.000242
  17 C :    0.300787    0.003942
  18 C :    0.300787    0.003942
  19 C :    0.308042    0.000084
  20 H :   -0.429042    0.005983
  21 C :    0.308042    0.000084
  22 H :   -0.429042    0.005983
  23 H :   -0.421470    0.000239
  24 H :   -0.421470    0.000239

  Mayer bond orders larger than 0.100000
B(  0-Cu,  1-S ) :   0.6994 B(  0-Cu,  3-S ) :   0.6994 B(  0-Cu,  5-S ) :   0.6994
B(  0-Cu,  7-S ) :   0.6994 B(  1-S ,  2-C ) :   1.1828 B(  2-C ,  6-C ) :   1.2485
B(  2-C , 17-C ) :   1.3156 B(  3-S ,  4-C ) :   1.1826 B(  4-C ,  8-C ) :   1.2489
B(  4-C , 10-C ) :   1.3154 B(  5-S ,  6-C ) :   1.1828 B(  6-C , 18-C ) :   1.3156
B(  7-S ,  8-C ) :   1.1826 B(  8-C ,  9-C ) :   1.3154 B(  9-C , 13-C ) :   1.3591
B(  9-C , 14-H ) :   0.9807 B( 10-C , 11-C ) :   1.3591 B( 10-C , 12-H ) :   0.9807
B( 11-C , 13-C ) :   1.3430 B( 11-C , 15-H ) :   0.9875 B( 13-C , 16-H ) :   0.9875
B( 17-C , 19-C ) :   1.3594 B( 17-C , 20-H ) :   0.9798 B( 18-C , 21-C ) :   1.3594
B( 18-C , 22-H ) :   0.9798 B( 19-C , 21-C ) :   1.3427 B( 19-C , 23-H ) :   0.9876
B( 21-C , 24-H ) :   0.9876

FINAL SINGLE POINT ENERGY     -3686.912319292739

DIPOLE MOMENT
-------------
                                X             Y             Z
Electronic contribution:     -0.01661       0.01441       0.00000
Nuclear contribution   :      0.01835      -0.01829      -0.00000
                        -----------------------------------------
Total Dipole Moment    :      0.00174      -0.00388       0.00000
                        -----------------------------------------
Magnitude (a.u.)       :      0.00425
Magnitude (Debye)      :      0.01079

Rotational constants in cm-1:     0.033345     0.004802     0.004200
Rotational constants in MHz :   999.646242   143.969742   125.919615

                             ****ORCA TERMINATED NORMALLY****
TOTAL RUN TIME: 0 days 6 hours 32 minutes 29 seconds 857 msec
