                         Program Version 5.0.4 -  RELEASE  -
|  1> ! RIJCOSX nofrozencore ReducedPop printbasis
|  2> ! M06L ano-rcc-dzp autoaux
|  3>
|  4> %maxcore 5000
|  5> %basis
|  6> PCDTrimBas overlap
|  7> PCDTrimAuxJ Coulomb
|  8> PCDTrimAuxJK Coulomb
|  9> PCDTrimAuxC Coulomb
| 10> PCDThresh -1
| 11> end
| 12>
| 13> %basis
| 14> newgto Cu "ano-rcc-tzp" end
| 15> newgto S "ano-rcc-tzp" end
| 16> end
| 17>
| 18> %pal
| 19> nprocs 4
| 20> end
| 21>
| 22> % sym SymThresh 1e-2 end
| 23> * xyz -2 2
| 24> Cu -1.2880036755786884e-07 9.906712933549285e-07 -4.450678419556881e-08
| 25> S -1.6444864867099709 -0.15246718870943557 1.6262598659382017
| 26> C -0.8021871683738215 0.13327396732895874 3.128482505256788
| 27> S -1.5558461310280463 -0.28845578264842575 -1.693636399361074
| 28> C -0.6318557071248816 -0.14181126243862238 -3.166508252581742
| 29> S 1.555637345632235 0.2900616608149541 1.6935642538638929
| 30> C 0.6336969083791214 0.12764961630011368 3.1671444770618176
| 31> S 1.6446951433054147 0.15086230121420058 -1.626187764947805
| 32> C 0.8003490583284032 -0.11913609730149055 -3.129117661574043
| 33> C 1.4890840897457034 -0.04707720256165284 -4.34899116464085
| 34> C -1.2546319203302947 -0.31599857513335206 -4.411275004156396
| 35> C -0.5293522538886483 -0.4099617517817963 -5.600170367287411
| 36> H -2.328152820101184 -0.47587144311373236 -4.4229490541317285
| 37> C 0.8285321133727116 -0.05335645290654773 -5.5786090015998955
| 38> H 2.562036951925633 0.11374338945844621 -4.31651025415174
| 39> H -1.0399963982514167 -0.6275168285926507 -6.539969020255608
| 40> H 1.3891128923450404 0.08683904598169714 -6.5045656825020055
| 41> C -1.490033579324645 0.05438038994030124 4.348662061842576
| 42> C 1.2555801219055607 0.30870529446763717 4.4116036618868275
| 43> C -0.8266468623927671 0.03885599718571165 5.5792604474001655
| 44> H -2.5625481605844698 -0.1098114150951205 4.316333606725268
| 45> C 0.5274668741083363 0.4244631981739257 5.599518876980356
| 46> H 2.328652925197717 0.4720247078775994 4.423122872759944
| 47> H -1.3847828424957511 -0.12015148872564609 6.506062246477849
| 48> H 1.0356706769997144 0.6607804687760329 6.538474594813157
| 49> *
| 50>
| 51> % eprnmr
| 52> gtensor true
| 53> Nuclei = all H {aiso,adip,aorb,fgrad,rho}
| 54> Nuclei = all Cu {aiso,adip,aorb,fgrad,rho}
| 55> end
| 56>
| 57>                          ****END OF INPUT****

CARTESIAN COORDINATES (ANGSTROEM)
---------------------------------
  Cu    -0.000000    0.000000   -0.000000
  S     -1.600512   -0.220568    1.661931
  C     -0.718201    0.003212    3.151642
  S     -1.600722   -0.218961   -1.661931
  C     -0.716352   -0.010950   -3.151642
  S      1.600512    0.220568    1.661931
  C      0.718201   -0.003212    3.151642
  S      1.600722    0.218961   -1.661931
  C      0.716352    0.010950   -3.151642
  C      1.372274    0.133816   -4.385461
  C     -1.372274   -0.133816   -4.385461
  C     -0.679086   -0.178079   -5.596188
  H     -2.445807   -0.293706   -4.375043
  C      0.679086    0.178079   -5.596188
  H      2.445807    0.293706   -4.375043
  H     -1.214791   -0.356812   -6.530201
  H      1.214791    0.356812   -6.530201
  C     -1.373228   -0.126511    4.385460
  C      1.373228    0.126511    4.385460
  C     -0.677192   -0.192594    5.596188
  H     -2.446315   -0.289813    4.375043
  C      0.677192    0.192594    5.596188
  H      2.446315    0.289813    4.375043
  H     -1.210443   -0.390131    6.530201
  H      1.210443    0.390131    6.530201

 Total Charge           Charge          ....   -2
 Multiplicity           Mult            ....    2
 Number of Electrons    NEL             ....  175
 Basis Dimension        Dim             ....  475

ORBITAL ENERGIES
----------------
                 SPIN UP ORBITALS
  NO   OCC          E(Eh)            E(eV)    Irrep
   0   1.0000    -318.180771     -8658.1390    1-A
   1   1.0000     -88.014656     -2395.0005    1-B
   2   1.0000     -88.014651     -2395.0004    2-A
   3   1.0000     -88.014497     -2394.9962    2-B
   4   1.0000     -88.014484     -2394.9959    3-A
   5   1.0000     -38.025933     -1034.7382    4-A
   6   1.0000     -33.529038      -912.3715    3-B
   7   1.0000     -33.528183      -912.3483    5-A
   8   1.0000     -33.514554      -911.9774    4-B
   9   1.0000      -9.833422      -267.5810    6-A
  10   1.0000      -9.833128      -267.5730    5-B
  11   1.0000      -9.833107      -267.5724    7-A
  12   1.0000      -9.832803      -267.5642    6-B
  13   1.0000      -9.827406      -267.4173    8-A
  14   1.0000      -9.827030      -267.4071    7-B
  15   1.0000      -9.826373      -267.3892    9-A
  16   1.0000      -9.825983      -267.3786    8-B
  17   1.0000      -9.818046      -267.1626    9-B
  18   1.0000      -9.818042      -267.1625   10-A
  19   1.0000      -9.817544      -267.1489   10-B
  20   1.0000      -9.817540      -267.1488   11-A
  21   1.0000      -7.583241      -206.3505   11-B
  22   1.0000      -7.583234      -206.3503   12-A
  23   1.0000      -7.583115      -206.3471   12-B
  24   1.0000      -7.583107      -206.3468   13-A
  25   1.0000      -5.506497      -149.8394   13-B
  26   1.0000      -5.506496      -149.8394   14-A
  27   1.0000      -5.506356      -149.8356   14-B
  28   1.0000      -5.506356      -149.8356   15-A
  29   1.0000      -5.501184      -149.6948   15-B
  30   1.0000      -5.501184      -149.6948   16-A
  31   1.0000      -5.501048      -149.6911   16-B
  32   1.0000      -5.501047      -149.6911   17-A
  33   1.0000      -5.499247      -149.6421   18-A
  34   1.0000      -5.499246      -149.6421   17-B
  35   1.0000      -5.499135      -149.6391   19-A
  36   1.0000      -5.499134      -149.6391   18-B
  37   1.0000      -4.023550      -109.4864   20-A
  38   1.0000      -2.544919       -69.2508   19-B
  39   1.0000      -2.543373       -69.2087   21-A
  40   1.0000      -2.516199       -68.4693   20-B
  41   1.0000      -0.587950       -15.9989   22-A
  42   1.0000      -0.587467       -15.9858   23-A
  43   1.0000      -0.502509       -13.6740   24-A
  44   1.0000      -0.501226       -13.6391   25-A
  45   1.0000      -0.489291       -13.3143   21-B
  46   1.0000      -0.488987       -13.3060   22-B
  47   1.0000      -0.408605       -11.1187   23-B
  48   1.0000      -0.405977       -11.0472   24-B
  49   1.0000      -0.386455       -10.5160   26-A
  50   1.0000      -0.379744       -10.3334   27-A
  51   1.0000      -0.319453        -8.6928   28-A
  52   1.0000      -0.316717        -8.6183   29-A
  53   1.0000      -0.300397        -8.1742   25-B
  54   1.0000      -0.296953        -8.0805   26-B
  55   1.0000      -0.231433        -6.2976   30-A
  56   1.0000      -0.226086        -6.1521   31-A
  57   1.0000      -0.187113        -5.0916   32-A
  58   1.0000      -0.185899        -5.0586   33-A
  59   1.0000      -0.178986        -4.8705   27-B
  60   1.0000      -0.175824        -4.7844   28-B
  61   1.0000      -0.148460        -4.0398   29-B
  62   1.0000      -0.145976        -3.9722   30-B
  63   1.0000      -0.130561        -3.5528   34-A
  64   1.0000      -0.114688        -3.1208   31-B
  65   1.0000      -0.113987        -3.1018   32-B
  66   1.0000      -0.113393        -3.0856   35-A
  67   1.0000      -0.085349        -2.3225   36-A
  68   1.0000      -0.071645        -1.9496   33-B
  69   1.0000      -0.066520        -1.8101   34-B
  70   1.0000      -0.060565        -1.6481   37-A
  71   1.0000      -0.035722        -0.9721   35-B
  72   1.0000      -0.033509        -0.9118   36-B
  73   1.0000      -0.031036        -0.8445   37-B
  74   1.0000      -0.030942        -0.8420   38-A
  75   1.0000      -0.023721        -0.6455   39-A
  76   1.0000      -0.018921        -0.5149   40-A
  77   1.0000      -0.002072        -0.0564   41-A
  78   1.0000       0.000296         0.0081   42-A
  79   1.0000       0.002731         0.0743   38-B
  80   1.0000       0.019131         0.5206   43-A
  81   1.0000       0.020102         0.5470   44-A
  82   1.0000       0.035055         0.9539   39-B
  83   1.0000       0.050987         1.3874   45-A
  84   1.0000       0.052949         1.4408   46-A
  85   1.0000       0.063951         1.7402   40-B
  86   1.0000       0.088089         2.3970   41-B
  87   1.0000       0.106037         2.8854   42-B
  88   0.0000       0.180730         4.9179   47-A
  89   0.0000       0.181036         4.9262   48-A
  90   0.0000       0.196006         5.3336   43-B
  91   0.0000       0.196293         5.3414   44-B
  92   0.0000       0.197993         5.3877   49-A

                 SPIN DOWN ORBITALS
  NO   OCC          E(Eh)            E(eV)    Irrep
   0   1.0000    -318.180598     -8658.1342    1-A
   1   1.0000     -88.013585     -2394.9714    1-B
   2   1.0000     -88.013580     -2394.9713    2-A
   3   1.0000     -88.013428     -2394.9671    2-B
   4   1.0000     -88.013415     -2394.9668    3-A
   5   1.0000     -38.010132     -1034.3083    4-A
   6   1.0000     -33.513945      -911.9608    3-B
   7   1.0000     -33.513124      -911.9385    5-A
   8   1.0000     -33.510241      -911.8600    4-B
   9   1.0000      -9.833530      -267.5840    6-A
  10   1.0000      -9.833236      -267.5759    5-B
  11   1.0000      -9.833216      -267.5754    7-A
  12   1.0000      -9.832912      -267.5671    6-B
  13   1.0000      -9.827384      -267.4167    8-A
  14   1.0000      -9.827008      -267.4065    7-B
  15   1.0000      -9.826351      -267.3886    9-A
  16   1.0000      -9.825961      -267.3780    8-B
  17   1.0000      -9.817985      -267.1610    9-B
  18   1.0000      -9.817981      -267.1609   10-A
  19   1.0000      -9.817483      -267.1473   10-B
  20   1.0000      -9.817480      -267.1472   11-A
  21   1.0000      -7.582508      -206.3305   11-B
  22   1.0000      -7.582501      -206.3303   12-A
  23   1.0000      -7.582384      -206.3272   12-B
  24   1.0000      -7.582375      -206.3269   13-A
  25   1.0000      -5.505574      -149.8143   13-B
  26   1.0000      -5.505574      -149.8143   14-A
  27   1.0000      -5.505433      -149.8104   14-B
  28   1.0000      -5.505432      -149.8104   15-A
  29   1.0000      -5.498945      -149.6339   15-B
  30   1.0000      -5.498945      -149.6339   16-A
  31   1.0000      -5.498812      -149.6303   16-B
  32   1.0000      -5.498812      -149.6303   17-A
  33   1.0000      -5.498417      -149.6195   18-A
  34   1.0000      -5.498416      -149.6195   17-B
  35   1.0000      -5.498309      -149.6166   19-A
  36   1.0000      -5.498309      -149.6166   18-B
  37   1.0000      -3.990002      -108.5735   20-A
  38   1.0000      -2.504556       -68.1524   19-B
  39   1.0000      -2.503066       -68.1119   20-B
  40   1.0000      -2.501517       -68.0697   21-A
  41   1.0000      -0.587571       -15.9886   22-A
  42   1.0000      -0.587085       -15.9754   23-A
  43   1.0000      -0.501164       -13.6374   24-A
  44   1.0000      -0.499940       -13.6041   25-A
  45   1.0000      -0.488237       -13.2856   21-B
  46   1.0000      -0.487951       -13.2778   22-B
  47   1.0000      -0.404651       -11.0111   23-B
  48   1.0000      -0.401932       -10.9371   24-B
  49   1.0000      -0.383236       -10.4284   26-A
  50   1.0000      -0.376580       -10.2473   27-A
  51   1.0000      -0.318266        -8.6605   28-A
  52   1.0000      -0.315237        -8.5780   29-A
  53   1.0000      -0.298607        -8.1255   25-B
  54   1.0000      -0.294743        -8.0204   26-B
  55   1.0000      -0.230849        -6.2817   30-A
  56   1.0000      -0.225371        -6.1327   31-A
  57   1.0000      -0.186155        -5.0655   32-A
  58   1.0000      -0.184999        -5.0341   33-A
  59   1.0000      -0.178435        -4.8555   27-B
  60   1.0000      -0.174911        -4.7596   28-B
  61   1.0000      -0.147841        -4.0230   29-B
  62   1.0000      -0.144689        -3.9372   30-B
  63   1.0000      -0.129314        -3.5188   34-A
  64   1.0000      -0.114444        -3.1142   31-B
  65   1.0000      -0.113717        -3.0944   32-B
  66   1.0000      -0.112493        -3.0611   35-A
  67   1.0000      -0.083887        -2.2827   36-A
  68   1.0000      -0.070131        -1.9083   33-B
  69   1.0000      -0.058869        -1.6019   37-A
  70   1.0000      -0.052485        -1.4282   34-B
  71   1.0000      -0.033454        -0.9103   35-B
  72   1.0000      -0.032299        -0.8789   36-B
  73   1.0000      -0.025901        -0.7048   38-A
  74   1.0000      -0.018631        -0.5070   39-A
  75   1.0000      -0.017798        -0.4843   40-A
  76   1.0000      -0.002187        -0.0595   37-B
  77   1.0000       0.007564         0.2058   41-A
  78   1.0000       0.011054         0.3008   42-A
  79   1.0000       0.014915         0.4059   38-B
  80   1.0000       0.026688         0.7262   43-A
  81   1.0000       0.034604         0.9416   44-A
  82   1.0000       0.043273         1.1775   39-B
  83   1.0000       0.053863         1.4657   45-A
  84   1.0000       0.058525         1.5925   46-A
  85   1.0000       0.065842         1.7916   40-B
  86   1.0000       0.092557         2.5186   41-B
  87   0.0000       0.138617         3.7719   42-B
  88   0.0000       0.181831         4.9479   47-A
  89   0.0000       0.182156         4.9567   48-A
  90   0.0000       0.197469         5.3734   43-B
  91   0.0000       0.198032         5.3887   44-B

MULLIKEN ATOMIC CHARGES AND SPIN POPULATIONS
--------------------------------------------
   0 Cu:    0.141997    0.373364
   1 S :   -0.417838    0.163159
   2 C :    0.013043   -0.006829
   3 S :   -0.419922    0.162872
   4 C :    0.015958   -0.006979
   5 S :   -0.417838    0.163159
   6 C :    0.013043   -0.006829
   7 S :   -0.419922    0.162872
   8 C :    0.015958   -0.006979
   9 C :   -0.084150   -0.001634
  10 C :   -0.084150   -0.001634
  11 C :   -0.144185   -0.000920
  12 H :    0.067617    0.001976
  13 C :   -0.144185   -0.000920
  14 H :    0.067617    0.001976
  15 H :    0.029111    0.001160
  16 H :    0.029111    0.001160
  17 C :   -0.081762   -0.001671
  18 C :   -0.081762   -0.001671
  19 C :   -0.145515   -0.000957
  20 H :    0.068589    0.001964
  21 C :   -0.145515   -0.000957
  22 H :    0.068589    0.001964
  23 H :    0.028057    0.001177
  24 H :    0.028057    0.001177
Sum of atomic charges         :   -2.0000000

LOEWDIN ATOMIC CHARGES AND SPIN POPULATIONS
-------------------------------------------
   0 Cu:   -0.895615    0.440240
   1 S :    0.005811    0.124489
   2 C :   -0.034552    0.005399
   3 S :    0.006579    0.124215
   4 C :   -0.035589    0.005341
   5 S :    0.005811    0.124489
   6 C :   -0.034552    0.005399
   7 S :    0.006579    0.124215
   8 C :   -0.035589    0.005341
   9 C :    0.305132    0.003938
  10 C :    0.305132    0.003938
  11 C :    0.312971   -0.000149
  12 H :   -0.449749    0.006203
  13 C :    0.312971   -0.000149
  14 H :   -0.449749    0.006203
  15 H :   -0.415596    0.000239
  16 H :   -0.415596    0.000239
  17 C :    0.304606    0.003942
  18 C :    0.304606    0.003942
  19 C :    0.313264   -0.000177
  20 H :   -0.450605    0.006196
  21 C :    0.313264   -0.000177
  22 H :   -0.450605    0.006196
  23 H :   -0.414464    0.000244
  24 H :   -0.414464    0.000244

  Mayer bond orders larger than 0.100000
B(  0-Cu,  1-S ) :   0.7003 B(  0-Cu,  3-S ) :   0.7004 B(  0-Cu,  5-S ) :   0.7003
B(  0-Cu,  7-S ) :   0.7004 B(  1-S ,  2-C ) :   1.1844 B(  2-C ,  6-C ) :   1.2459
B(  2-C , 17-C ) :   1.3183 B(  3-S ,  4-C ) :   1.1845 B(  4-C ,  8-C ) :   1.2455
B(  4-C , 10-C ) :   1.3182 B(  5-S ,  6-C ) :   1.1844 B(  6-C , 18-C ) :   1.3183
B(  7-S ,  8-C ) :   1.1845 B(  8-C ,  9-C ) :   1.3182 B(  9-C , 13-C ) :   1.3664
B(  9-C , 14-H ) :   0.9677 B( 10-C , 11-C ) :   1.3664 B( 10-C , 12-H ) :   0.9677
B( 11-C , 13-C ) :   1.3332 B( 11-C , 15-H ) :   0.9900 B( 13-C , 16-H ) :   0.9900
B( 17-C , 19-C ) :   1.3677 B( 17-C , 20-H ) :   0.9670 B( 18-C , 21-C ) :   1.3677
B( 18-C , 22-H ) :   0.9670 B( 19-C , 21-C ) :   1.3308 B( 19-C , 23-H ) :   0.9905
B( 21-C , 24-H ) :   0.9905

FINAL SINGLE POINT ENERGY     -3686.905275642507

DIPOLE MOMENT
-------------
                                X             Y             Z
Electronic contribution:     -0.00000       0.00000       0.00125
Nuclear contribution   :     -0.00000       0.00000       0.00000
                        -----------------------------------------
Total Dipole Moment    :     -0.00000       0.00000       0.00125
                        -----------------------------------------
Magnitude (a.u.)       :      0.00125
Magnitude (Debye)      :      0.00317

Rotational constants in cm-1:     0.033347     0.004802     0.004200
Rotational constants in MHz :   999.721825   143.971310   125.919615

                             ****ORCA TERMINATED NORMALLY****
TOTAL RUN TIME: 0 days 5 hours 36 minutes 46 seconds 397 msec
