                         Program Version 5.0.4 -  RELEASE  -
|  1> ! RIJCOSX nofrozencore ReducedPop printbasis
|  2> ! M06L ano-rcc-dzp autoaux
|  3>
|  4> %maxcore 5000
|  5> %basis
|  6> PCDTrimBas overlap
|  7> PCDTrimAuxJ Coulomb
|  8> PCDTrimAuxJK Coulomb
|  9> PCDTrimAuxC Coulomb
| 10> PCDThresh -1
| 11> end
| 12>
| 13> %basis
| 14> newgto Cu "ano-rcc-tzp" end
| 15> newgto S "ano-rcc-tzp" end
| 16> end
| 17>
| 18> %pal
| 19> nprocs 12
| 20> end
| 21>
| 22> % sym SymThresh 1e-2 end
| 23> * xyz -2 2
| 24> Cu 0.0 0.0 0.0
| 25> S 0.14809642272125895 1.8124598884468217 1.437090246685469
| 26> C -1.2708371119127855 1.6921064498841332 2.441728827102364
| 27> S 1.9594648519337197 0.6101977735173947 -1.0771867301456048
| 28> C 2.206859430752064 -0.6327512288108799 -2.2739187010682675
| 29> S -1.9618112545416666 -0.6077273976739442 1.0743071192355136
| 30> C -2.168643732952695 0.5925163874565338 2.320818725789987
| 31> S -0.14575002011331212 -1.814930264290272 -1.4342106357753777
| 32> C 1.2326214141134164 -1.651871608529787 -2.488628851824083
| 33> C 1.525237744579843 -2.655463268650556 -3.4288472585181893
| 34> C 3.260754417264877 -0.5235625011548555 -3.198152769410815
| 35> C 3.492171653735029 -1.4896349924349184 -4.170005743314507
| 36> H 4.132344923579578 0.11545855167526857 -2.8614497013360447
| 37> C 2.6151056295287693 -2.5670273732860114 -4.286585482562113
| 38> H 0.6421941333435558 -3.286844271663627 -3.749909987611719
| 39> H 4.513323411127371 -1.5703990735745357 -4.6299700378235515
| 40> H 2.613353327423077 -3.163414782749349 -5.237936805008211
| 41> C -1.4726395942540857 2.6000862834775185 3.493396651214435
| 42> C -3.3133441518897317 0.5789306259796542 3.133613704841572
| 43> C -2.5884794038350942 2.5389943390006158 4.319262385384493
| 44> H -0.8745952917168031 3.5315244496052745 3.464696823893393
| 45> C -3.5188073470922197 1.5176779946120833 4.137317221349247
| 46> H -3.9000179482541313 -0.3600608391202112 3.1465732495091676
| 47> H -2.8387903669053483 3.4007643259394547 4.961269632409225
| 48> H -4.287811429511681 1.3329735016266504 4.906727804598007
| 49> *
| 50>
| 51> % eprnmr
| 52> gtensor true
| 53> Nuclei = all H {aiso,adip,aorb,fgrad,rho}
| 54> Nuclei = all Cu {aiso,adip,aorb,fgrad,rho}
| 55> end
| 56>
| 57>                          ****END OF INPUT****

CARTESIAN COORDINATES (ANGSTROEM)
---------------------------------
  Cu    -0.000000    0.000000   -0.000000
  S      1.119323    1.165020    1.661931
  C      0.471356    0.534104    3.151642
  S      1.116103    1.168107   -1.661931
  C      0.523806    0.483827   -3.151642
  S     -1.119323   -1.165020    1.661931
  C     -0.471356   -0.534104    3.151642
  S     -1.116103   -1.168107   -1.661931
  C     -0.523806   -0.483827   -3.151642
  C     -0.910713   -1.035935   -4.385461
  C      0.910713    1.035935   -4.385461
  C      0.460240    0.523528   -5.596188
  H      1.894108    1.596527   -4.375043
  C     -0.460240   -0.523528   -5.596188
  H     -1.894108   -1.596527   -4.375043
  H      1.049460    0.726592   -6.530201
  H     -1.049460   -0.726592   -6.530201
  C      0.982897    0.966742    4.385460
  C     -0.982897   -0.966742    4.385460
  C      0.496791    0.488492    5.596188
  H      1.575190    1.902231    4.375043
  C     -0.496791   -0.488492    5.596188
  H     -1.575190   -1.902231    4.375043
  H      0.739998    1.023231    6.530201
  H     -0.739998   -1.023231    6.530201

 Total Charge           Charge          ....   -2
 Multiplicity           Mult            ....    2
 Number of Electrons    NEL             ....  175
 Basis Dimension        Dim             ....  475

ORBITAL ENERGIES
----------------
                 SPIN UP ORBITALS
  NO   OCC          E(Eh)            E(eV)    Irrep
   0   1.0000    -318.183697     -8658.2186    1-A
   1   1.0000     -88.017337     -2395.0735    1-B
   2   1.0000     -88.017328     -2395.0733    2-A
   3   1.0000     -88.016713     -2395.0565    2-B
   4   1.0000     -88.016702     -2395.0562    3-A
   5   1.0000     -38.028893     -1034.8188    4-A
   6   1.0000     -33.532028      -912.4529    3-B
   7   1.0000     -33.531166      -912.4294    5-A
   8   1.0000     -33.517442      -912.0560    4-B
   9   1.0000      -9.836258      -267.6582    6-A
  10   1.0000      -9.835936      -267.6494    5-B
  11   1.0000      -9.835070      -267.6259    7-A
  12   1.0000      -9.834744      -267.6170    6-B
  13   1.0000      -9.827068      -267.4081    8-A
  14   1.0000      -9.826643      -267.3965    7-B
  15   1.0000      -9.825961      -267.3780    9-A
  16   1.0000      -9.825533      -267.3663    8-B
  17   1.0000      -9.822397      -267.2810    9-B
  18   1.0000      -9.822394      -267.2809   10-A
  19   1.0000      -9.819962      -267.2147   10-B
  20   1.0000      -9.819958      -267.2146   11-A
  21   1.0000      -7.585963      -206.4246   11-B
  22   1.0000      -7.585955      -206.4243   12-A
  23   1.0000      -7.585369      -206.4084   12-B
  24   1.0000      -7.585360      -206.4081   13-A
  25   1.0000      -5.509149      -149.9116   13-B
  26   1.0000      -5.509148      -149.9115   14-A
  27   1.0000      -5.508557      -149.8955   14-B
  28   1.0000      -5.508556      -149.8954   15-A
  29   1.0000      -5.503841      -149.7671   15-B
  30   1.0000      -5.503841      -149.7671   16-A
  31   1.0000      -5.503276      -149.7517   16-B
  32   1.0000      -5.503275      -149.7517   17-A
  33   1.0000      -5.502099      -149.7197   18-A
  34   1.0000      -5.502099      -149.7197   17-B
  35   1.0000      -5.501462      -149.7024   19-A
  36   1.0000      -5.501462      -149.7024   18-B
  37   1.0000      -4.026501      -109.5667   20-A
  38   1.0000      -2.547935       -69.3328   19-B
  39   1.0000      -2.546373       -69.2903   21-A
  40   1.0000      -2.519019       -68.5460   20-B
  41   1.0000      -0.590982       -16.0814   22-A
  42   1.0000      -0.590859       -16.0781   23-A
  43   1.0000      -0.505610       -13.7583   24-A
  44   1.0000      -0.504420       -13.7260   25-A
  45   1.0000      -0.490681       -13.3521   21-B
  46   1.0000      -0.489843       -13.3293   22-B
  47   1.0000      -0.410854       -11.1799   23-B
  48   1.0000      -0.408196       -11.1076   24-B
  49   1.0000      -0.388485       -10.5712   26-A
  50   1.0000      -0.381622       -10.3845   27-A
  51   1.0000      -0.320276        -8.7152   28-A
  52   1.0000      -0.316592        -8.6149   29-A
  53   1.0000      -0.298687        -8.1277   25-B
  54   1.0000      -0.294429        -8.0118   26-B
  55   1.0000      -0.229239        -6.2379   30-A
  56   1.0000      -0.222313        -6.0495   31-A
  57   1.0000      -0.190767        -5.1910   32-A
  58   1.0000      -0.189786        -5.1643   33-A
  59   1.0000      -0.172852        -4.7035   27-B
  60   1.0000      -0.166474        -4.5300   28-B
  61   1.0000      -0.153894        -4.1877   29-B
  62   1.0000      -0.150287        -4.0895   30-B
  63   1.0000      -0.130577        -3.5532   34-A
  64   1.0000      -0.112424        -3.0592   31-B
  65   1.0000      -0.110669        -3.0114   35-A
  66   1.0000      -0.107228        -2.9178   32-B
  67   1.0000      -0.084797        -2.3075   36-A
  68   1.0000      -0.074508        -2.0275   33-B
  69   1.0000      -0.069569        -1.8931   34-B
  70   1.0000      -0.063360        -1.7241   37-A
  71   1.0000      -0.039444        -1.0733   35-B
  72   1.0000      -0.035829        -0.9749   36-B
  73   1.0000      -0.031241        -0.8501   38-A
  74   1.0000      -0.028258        -0.7689   39-A
  75   1.0000      -0.027898        -0.7591   37-B
  76   1.0000      -0.021420        -0.5829   40-A
  77   1.0000      -0.005115        -0.1392   41-A
  78   1.0000      -0.002775        -0.0755   42-A
  79   1.0000      -0.000355        -0.0097   38-B
  80   1.0000       0.016182         0.4403   43-A
  81   1.0000       0.016985         0.4622   44-A
  82   1.0000       0.032663         0.8888   39-B
  83   1.0000       0.046922         1.2768   45-A
  84   1.0000       0.049497         1.3469   46-A
  85   1.0000       0.060200         1.6381   40-B
  86   1.0000       0.085033         2.3139   41-B
  87   1.0000       0.102950         2.8014   42-B
  88   0.0000       0.180905         4.9227   47-A
  89   0.0000       0.181175         4.9300   48-A
  90   0.0000       0.190699         5.1892   43-B
  91   0.0000       0.195867         5.3298   44-B
  92   0.0000       0.196281         5.3411   45-B

                 SPIN DOWN ORBITALS
  NO   OCC          E(Eh)            E(eV)    Irrep
   0   1.0000    -318.183523     -8658.2138    1-A
   1   1.0000     -88.016265     -2395.0443    1-B
   2   1.0000     -88.016257     -2395.0441    2-A
   3   1.0000     -88.015639     -2395.0273    2-B
   4   1.0000     -88.015628     -2395.0270    3-A
   5   1.0000     -38.013015     -1034.3867    4-A
   6   1.0000     -33.516861      -912.0401    3-B
   7   1.0000     -33.516032      -912.0176    5-A
   8   1.0000     -33.513111      -911.9381    4-B
   9   1.0000      -9.836374      -267.6614    6-A
  10   1.0000      -9.836052      -267.6526    5-B
  11   1.0000      -9.835186      -267.6290    7-A
  12   1.0000      -9.834859      -267.6201    6-B
  13   1.0000      -9.827044      -267.4075    8-A
  14   1.0000      -9.826619      -267.3959    7-B
  15   1.0000      -9.825938      -267.3774    9-A
  16   1.0000      -9.825510      -267.3657    8-B
  17   1.0000      -9.822342      -267.2795    9-B
  18   1.0000      -9.822339      -267.2794   10-A
  19   1.0000      -9.819905      -267.2132   10-B
  20   1.0000      -9.819901      -267.2131   11-A
  21   1.0000      -7.585232      -206.4047   11-B
  22   1.0000      -7.585224      -206.4044   12-A
  23   1.0000      -7.584637      -206.3885   12-B
  24   1.0000      -7.584628      -206.3882   13-A
  25   1.0000      -5.508220      -149.8863   13-B
  26   1.0000      -5.508219      -149.8863   14-A
  27   1.0000      -5.507626      -149.8701   14-B
  28   1.0000      -5.507625      -149.8701   15-A
  29   1.0000      -5.501602      -149.7062   15-B
  30   1.0000      -5.501602      -149.7062   16-A
  31   1.0000      -5.501277      -149.6973   17-A
  32   1.0000      -5.501276      -149.6973   16-B
  33   1.0000      -5.501033      -149.6907   17-B
  34   1.0000      -5.501032      -149.6907   18-A
  35   1.0000      -5.500641      -149.6801   19-A
  36   1.0000      -5.500641      -149.6800   18-B
  37   1.0000      -3.992754      -108.6484   20-A
  38   1.0000      -2.507302       -68.2272   19-B
  39   1.0000      -2.505845       -68.1875   20-B
  40   1.0000      -2.504289       -68.1452   21-A
  41   1.0000      -0.590608       -16.0713   22-A
  42   1.0000      -0.590496       -16.0682   23-A
  43   1.0000      -0.504267       -13.7218   24-A
  44   1.0000      -0.503144       -13.6912   25-A
  45   1.0000      -0.489610       -13.3230   21-B
  46   1.0000      -0.488756       -13.2997   22-B
  47   1.0000      -0.406867       -11.0714   23-B
  48   1.0000      -0.404109       -10.9964   24-B
  49   1.0000      -0.385215       -10.4822   26-A
  50   1.0000      -0.378387       -10.2964   27-A
  51   1.0000      -0.319053        -8.6819   28-A
  52   1.0000      -0.315166        -8.5761   29-A
  53   1.0000      -0.296850        -8.0777   25-B
  54   1.0000      -0.292207        -7.9514   26-B
  55   1.0000      -0.228646        -6.2218   30-A
  56   1.0000      -0.221646        -6.0313   31-A
  57   1.0000      -0.189803        -5.1648   32-A
  58   1.0000      -0.188891        -5.1400   33-A
  59   1.0000      -0.172233        -4.6867   27-B
  60   1.0000      -0.165660        -4.5078   28-B
  61   1.0000      -0.153377        -4.1736   29-B
  62   1.0000      -0.149272        -4.0619   30-B
  63   1.0000      -0.129222        -3.5163   34-A
  64   1.0000      -0.111933        -3.0458   31-B
  65   1.0000      -0.109677        -2.9845   35-A
  66   1.0000      -0.106463        -2.8970   32-B
  67   1.0000      -0.083457        -2.2710   36-A
  68   1.0000      -0.072978        -1.9858   33-B
  69   1.0000      -0.061768        -1.6808   37-A
  70   1.0000      -0.057950        -1.5769   34-B
  71   1.0000      -0.034335        -0.9343   35-B
  72   1.0000      -0.029560        -0.8044   36-B
  73   1.0000      -0.025243        -0.6869   38-A
  74   1.0000      -0.024551        -0.6681   39-A
  75   1.0000      -0.020267        -0.5515   40-A
  76   1.0000      -0.004664        -0.1269   37-B
  77   1.0000       0.004450         0.1211   41-A
  78   1.0000       0.007979         0.2171   42-A
  79   1.0000       0.011665         0.3174   38-B
  80   1.0000       0.023791         0.6474   43-A
  81   1.0000       0.031882         0.8675   44-A
  82   1.0000       0.040992         1.1154   39-B
  83   1.0000       0.049828         1.3559   45-A
  84   1.0000       0.055109         1.4996   46-A
  85   1.0000       0.062036         1.6881   40-B
  86   1.0000       0.089183         2.4268   41-B
  87   0.0000       0.136028         3.7015   42-B
  88   0.0000       0.181961         4.9514   47-A
  89   0.0000       0.182173         4.9572   48-A
  90   0.0000       0.190737         5.1902   43-B
  91   0.0000       0.196618         5.3502   44-B

MULLIKEN ATOMIC CHARGES AND SPIN POPULATIONS
--------------------------------------------
   0 Cu:    0.144966    0.374873
   1 S :   -0.418007    0.163622
   2 C :    0.030058   -0.007766
   3 S :   -0.410836    0.163314
   4 C :    0.036231   -0.007971
   5 S :   -0.418007    0.163622
   6 C :    0.030058   -0.007766
   7 S :   -0.410836    0.163314
   8 C :    0.036231   -0.007971
   9 C :   -0.090241   -0.001310
  10 C :   -0.090241   -0.001310
  11 C :   -0.113476   -0.000757
  12 H :    0.033731    0.001584
  13 C :   -0.113476   -0.000757
  14 H :    0.033731    0.001584
  15 H :    0.007520    0.001158
  16 H :    0.007520    0.001158
  17 C :   -0.091173   -0.001391
  18 C :   -0.091173   -0.001391
  19 C :   -0.125761   -0.000804
  20 H :    0.049245    0.001763
  21 C :   -0.125761   -0.000804
  22 H :    0.049245    0.001763
  23 H :    0.020226    0.001122
  24 H :    0.020226    0.001122
Sum of atomic charges         :   -2.0000000

LOEWDIN ATOMIC CHARGES AND SPIN POPULATIONS
-------------------------------------------
   0 Cu:   -0.893068    0.442153
   1 S :    0.009537    0.124518
   2 C :   -0.040110    0.005085
   3 S :    0.009289    0.124338
   4 C :   -0.042176    0.004982
   5 S :    0.009537    0.124518
   6 C :   -0.040110    0.005085
   7 S :    0.009289    0.124338
   8 C :   -0.042176    0.004982
   9 C :    0.281222    0.003699
  10 C :    0.281222    0.003699
  11 C :    0.280029   -0.000084
  12 H :   -0.412397    0.006022
  13 C :    0.280029   -0.000084
  14 H :   -0.412397    0.006022
  15 H :   -0.393651    0.000261
  16 H :   -0.393651    0.000261
  17 C :    0.294483    0.003810
  18 C :    0.294483    0.003810
  19 C :    0.296819   -0.000099
  20 H :   -0.430203    0.006160
  21 C :    0.296819   -0.000099
  22 H :   -0.430203    0.006160
  23 H :   -0.406308    0.000231
  24 H :   -0.406308    0.000231

  Mayer bond orders larger than 0.100000
B(  0-Cu,  1-S ) :   0.7002 B(  0-Cu,  3-S ) :   0.6989 B(  0-Cu,  5-S ) :   0.7002
B(  0-Cu,  7-S ) :   0.6989 B(  1-S ,  2-C ) :   1.1868 B(  2-C ,  6-C ) :   1.2413
B(  2-C , 17-C ) :   1.3173 B(  3-S ,  4-C ) :   1.1894 B(  4-C ,  8-C ) :   1.2375
B(  4-C , 10-C ) :   1.3153 B(  5-S ,  6-C ) :   1.1868 B(  6-C , 18-C ) :   1.3173
B(  7-S ,  8-C ) :   1.1894 B(  8-C ,  9-C ) :   1.3153 B(  9-C , 13-C ) :   1.3612
B(  9-C , 14-H ) :   0.9904 B( 10-C , 11-C ) :   1.3612 B( 10-C , 12-H ) :   0.9904
B( 11-C , 13-C ) :   1.3246 B( 11-C , 15-H ) :   1.0001 B( 13-C , 16-H ) :   1.0001
B( 17-C , 19-C ) :   1.3621 B( 17-C , 20-H ) :   0.9810 B( 18-C , 21-C ) :   1.3621
B( 18-C , 22-H ) :   0.9810 B( 19-C , 21-C ) :   1.3319 B( 19-C , 23-H ) :   0.9945
B( 21-C , 24-H ) :   0.9945

FINAL SINGLE POINT ENERGY     -3686.896538604517

DIPOLE MOMENT
-------------
                                X             Y             Z
Electronic contribution:     -0.00000      -0.00000       0.11127
Nuclear contribution   :      0.00000       0.00000       0.00000
                        -----------------------------------------
Total Dipole Moment    :     -0.00000      -0.00000       0.11127
                        -----------------------------------------
Magnitude (a.u.)       :      0.11127
Magnitude (Debye)      :      0.28283

Rotational constants in cm-1:     0.033382     0.004803     0.004200
Rotational constants in MHz :  1000.765147   143.992928   125.919615

                             ****ORCA TERMINATED NORMALLY****
TOTAL RUN TIME: 0 days 6 hours 13 minutes 9 seconds 764 msec
