                         Program Version 5.0.4 -  RELEASE  -
|  1> ! RIJCOSX nofrozencore ReducedPop printbasis
|  2> ! M06L ano-rcc-dzp autoaux
|  3>
|  4> %maxcore 5000
|  5> %basis
|  6> PCDTrimBas overlap
|  7> PCDTrimAuxJ Coulomb
|  8> PCDTrimAuxJK Coulomb
|  9> PCDTrimAuxC Coulomb
| 10> PCDThresh -1
| 11> end
| 12>
| 13> %basis
| 14> newgto Cu "ano-rcc-tzp" end
| 15> newgto S "ano-rcc-tzp" end
| 16> end
| 17>
| 18> %pal
| 19> nprocs 12
| 20> end
| 21>
| 22> % sym SymThresh 1e-2 end
| 23> * xyz -2 2
| 24> Cu 0.0 0.0 0.0
| 25> S 0.7480747252738227 1.3815492240533471 1.7040768577100884
| 26> C 0.7590162837499504 0.364734588466514 3.1195425956124683
| 27> S 0.11041779937181637 1.7291614527657857 -1.5394734254493656
| 28> C -0.4385509317225577 1.0208681290248154 -3.034060660002639
| 29> S -0.1110585612060193 -1.7289929171475804 1.5396173143552099
| 30> C 0.4490034772775495 -1.0236173973689888 3.0317134456978625
| 31> S -0.7474339634396198 -1.3817177596715522 -1.7042207466159327
| 32> C -0.7694678842284907 -0.3619855686999487 -3.1171955935332165
| 33> C -1.2360276065464146 -0.8605170122795879 -4.343282103566675
| 34> C -0.4449192233762727 1.7773437679404804 -4.216092969613738
| 35> C -0.872803917875231 1.2515635625737498 -5.429031720512171
| 36> H -0.32214554922368566 2.8650554520212754 -4.113019883824115
| 37> C -1.2721956144869737 -0.08162648113397973 -5.493399545333089
| 38> H -1.3547258580354828 -1.9504283106304159 -4.426040192625391
| 39> H -1.0523803267524354 1.9217441984695565 -6.279077137105344
| 40> H -1.4507114222439765 -0.5565184430469676 -6.46630597762157
| 41> C 1.2503897417326688 0.8567394829012782 4.3400559363844335
| 42> C 0.43054858250195394 -1.773564001363699 4.219321046825703
| 43> C 1.2794660876293382 0.07971417359584904 5.491766894370463
| 44> H 1.2913556467245544 1.9670961849777806 4.440270550742767
| 45> C 0.8655410053444795 -1.249653243656483 5.430662673670598
| 46> H 0.3855858878411519 -2.881741825641675 4.098774796899085
| 47> H 1.3890927023640667 0.5727266660419211 6.480143132990613
| 48> H 1.113932475736588 -1.937932846544021 6.265255152046974
| 49> *
| 50>
| 51> % eprnmr
| 52> gtensor true
| 53> Nuclei = all H {aiso,adip,aorb,fgrad,rho}
| 54> Nuclei = all Cu {aiso,adip,aorb,fgrad,rho}
| 55> end
| 56>
| 57>                          ****END OF INPUT****

CARTESIAN COORDINATES (ANGSTROEM)
---------------------------------
  Cu    -0.000000   -0.000000   -0.000000
  S      0.421697    1.559593    1.661931
  C      0.150794    0.696489    3.151642
  S      0.421042    1.559769   -1.661931
  C      0.161474    0.693615   -3.151642
  S     -0.421697   -1.559593    1.661931
  C     -0.150794   -0.696489    3.151642
  S     -0.421042   -1.559769   -1.661931
  C     -0.161474   -0.693615   -3.151642
  C     -0.389476   -1.322268   -4.385461
  C      0.389476    1.322268   -4.385461
  C      0.196620    0.668284   -5.596188
  H      0.501273    2.415988   -4.375043
  C     -0.196620   -0.668284   -5.596188
  H     -0.501273   -2.415988   -4.375043
  H      0.190170    1.244071   -6.530201
  H     -0.190170   -1.244071   -6.530201
  C      0.404155    1.318318    4.385460
  C     -0.404155   -1.318318    4.385460
  C      0.204044    0.666286    5.596188
  H      0.436488    2.433422    4.375043
  C     -0.204044   -0.666286    5.596188
  H     -0.436488   -2.433422    4.375043
  H      0.127244    1.261005    6.530201
  H     -0.127244   -1.261005    6.530201

 Total Charge           Charge          ....   -2
 Multiplicity           Mult            ....    2
 Number of Electrons    NEL             ....  175
 Basis Dimension        Dim             ....  475

ORBITAL ENERGIES
----------------
                 SPIN UP ORBITALS
  NO   OCC          E(Eh)            E(eV)    Irrep
   0   1.0000    -318.182787     -8658.1938    1-A
   1   1.0000     -88.016196     -2395.0425    1-B
   2   1.0000     -88.016188     -2395.0422    2-A
   3   1.0000     -88.015792     -2395.0315    2-B
   4   1.0000     -88.015780     -2395.0311    3-A
   5   1.0000     -38.028001     -1034.7945    4-A
   6   1.0000     -33.531133      -912.4285    3-B
   7   1.0000     -33.530279      -912.4053    5-A
   8   1.0000     -33.516542      -912.0315    4-B
   9   1.0000      -9.834891      -267.6210    6-A
  10   1.0000      -9.834566      -267.6121    5-B
  11   1.0000      -9.834119      -267.6000    7-A
  12   1.0000      -9.833791      -267.5911    6-B
  13   1.0000      -9.825822      -267.3742    8-A
  14   1.0000      -9.825394      -267.3626    7-B
  15   1.0000      -9.825125      -267.3552    9-A
  16   1.0000      -9.824695      -267.3435    8-B
  17   1.0000      -9.820240      -267.2223    9-B
  18   1.0000      -9.820237      -267.2222   10-A
  19   1.0000      -9.818638      -267.1787   10-B
  20   1.0000      -9.818634      -267.1786   11-A
  21   1.0000      -7.584871      -206.3948   11-B
  22   1.0000      -7.584862      -206.3946   12-A
  23   1.0000      -7.584484      -206.3843   12-B
  24   1.0000      -7.584475      -206.3841   13-A
  25   1.0000      -5.508063      -149.8820   13-B
  26   1.0000      -5.508062      -149.8820   14-A
  27   1.0000      -5.507678      -149.8715   14-B
  28   1.0000      -5.507678      -149.8715   15-A
  29   1.0000      -5.502754      -149.7376   15-B
  30   1.0000      -5.502754      -149.7375   16-A
  31   1.0000      -5.502386      -149.7275   16-B
  32   1.0000      -5.502385      -149.7275   17-A
  33   1.0000      -5.500981      -149.6893   18-A
  34   1.0000      -5.500980      -149.6893   17-B
  35   1.0000      -5.500567      -149.6780   19-A
  36   1.0000      -5.500566      -149.6780   18-B
  37   1.0000      -4.025598      -109.5421   20-A
  38   1.0000      -2.547027       -69.3081   19-B
  39   1.0000      -2.545472       -69.2658   21-A
  40   1.0000      -2.518115       -68.5214   20-B
  41   1.0000      -0.590410       -16.0659   22-A
  42   1.0000      -0.590290       -16.0626   23-A
  43   1.0000      -0.505196       -13.7471   24-A
  44   1.0000      -0.504051       -13.7159   25-A
  45   1.0000      -0.490351       -13.3431   21-B
  46   1.0000      -0.489758       -13.3270   22-B
  47   1.0000      -0.410372       -11.1668   23-B
  48   1.0000      -0.407745       -11.0953   24-B
  49   1.0000      -0.388207       -10.5637   26-A
  50   1.0000      -0.381445       -10.3796   27-A
  51   1.0000      -0.320737        -8.7277   28-A
  52   1.0000      -0.317571        -8.6416   29-A
  53   1.0000      -0.299020        -8.1367   25-B
  54   1.0000      -0.295136        -8.0311   26-B
  55   1.0000      -0.230379        -6.2689   30-A
  56   1.0000      -0.224288        -6.1032   31-A
  57   1.0000      -0.190453        -5.1825   32-A
  58   1.0000      -0.189552        -5.1580   33-A
  59   1.0000      -0.174204        -4.7403   27-B
  60   1.0000      -0.169387        -4.6093   28-B
  61   1.0000      -0.151662        -4.1269   29-B
  62   1.0000      -0.148383        -4.0377   30-B
  63   1.0000      -0.130660        -3.5554   34-A
  64   1.0000      -0.113812        -3.0970   31-B
  65   1.0000      -0.111611        -3.0371   35-A
  66   1.0000      -0.109955        -2.9920   32-B
  67   1.0000      -0.085446        -2.3251   36-A
  68   1.0000      -0.072824        -1.9816   33-B
  69   1.0000      -0.068108        -1.8533   34-B
  70   1.0000      -0.062867        -1.7107   37-A
  71   1.0000      -0.039643        -1.0787   35-B
  72   1.0000      -0.034964        -0.9514   36-B
  73   1.0000      -0.030694        -0.8352   38-A
  74   1.0000      -0.029713        -0.8085   37-B
  75   1.0000      -0.027416        -0.7460   39-A
  76   1.0000      -0.020489        -0.5575   40-A
  77   1.0000      -0.004781        -0.1301   41-A
  78   1.0000      -0.001565        -0.0426   42-A
  79   1.0000       0.000369         0.0101   38-B
  80   1.0000       0.017065         0.4644   43-A
  81   1.0000       0.017679         0.4811   44-A
  82   1.0000       0.033480         0.9110   39-B
  83   1.0000       0.048246         1.3129   45-A
  84   1.0000       0.050469         1.3733   46-A
  85   1.0000       0.061105         1.6628   40-B
  86   1.0000       0.086011         2.3405   41-B
  87   1.0000       0.103792         2.8243   42-B
  88   0.0000       0.181127         4.9287   47-A
  89   0.0000       0.181342         4.9346   48-A
  90   0.0000       0.194314         5.2876   43-B
  91   0.0000       0.196333         5.3425   44-B
  92   0.0000       0.196719         5.3530   45-B

                 SPIN DOWN ORBITALS
  NO   OCC          E(Eh)            E(eV)    Irrep
   0   1.0000    -318.182614     -8658.1891    1-A
   1   1.0000     -88.015125     -2395.0133    1-B
   2   1.0000     -88.015116     -2395.0131    2-A
   3   1.0000     -88.014719     -2395.0023    2-B
   4   1.0000     -88.014707     -2395.0019    3-A
   5   1.0000     -38.012135     -1034.3628    4-A
   6   1.0000     -33.515978      -912.0161    3-B
   7   1.0000     -33.515156      -911.9937    5-A
   8   1.0000     -33.512216      -911.9137    4-B
   9   1.0000      -9.835006      -267.6241    6-A
  10   1.0000      -9.834681      -267.6153    5-B
  11   1.0000      -9.834234      -267.6031    7-A
  12   1.0000      -9.833906      -267.5942    6-B
  13   1.0000      -9.825799      -267.3736    8-A
  14   1.0000      -9.825371      -267.3619    7-B
  15   1.0000      -9.825102      -267.3546    9-A
  16   1.0000      -9.824673      -267.3429    8-B
  17   1.0000      -9.820184      -267.2208    9-B
  18   1.0000      -9.820180      -267.2207   10-A
  19   1.0000      -9.818580      -267.1772   10-B
  20   1.0000      -9.818576      -267.1770   11-A
  21   1.0000      -7.584138      -206.3749   11-B
  22   1.0000      -7.584129      -206.3746   12-A
  23   1.0000      -7.583751      -206.3643   12-B
  24   1.0000      -7.583742      -206.3641   13-A
  25   1.0000      -5.507131      -149.8566   13-B
  26   1.0000      -5.507130      -149.8566   14-A
  27   1.0000      -5.506745      -149.8462   14-B
  28   1.0000      -5.506745      -149.8461   15-A
  29   1.0000      -5.500511      -149.6765   15-B
  30   1.0000      -5.500511      -149.6765   16-A
  31   1.0000      -5.500161      -149.6670   17-A
  32   1.0000      -5.500161      -149.6670   16-B
  33   1.0000      -5.500139      -149.6664   17-B
  34   1.0000      -5.500139      -149.6664   18-A
  35   1.0000      -5.499749      -149.6558   19-A
  36   1.0000      -5.499748      -149.6558   18-B
  37   1.0000      -3.991887      -108.6248   20-A
  38   1.0000      -2.506417       -68.2031   19-B
  39   1.0000      -2.504991       -68.1643   20-B
  40   1.0000      -2.503409       -68.1212   21-A
  41   1.0000      -0.590040       -16.0558   22-A
  42   1.0000      -0.589930       -16.0528   23-A
  43   1.0000      -0.503861       -13.7108   24-A
  44   1.0000      -0.502785       -13.6815   25-A
  45   1.0000      -0.489292       -13.3143   21-B
  46   1.0000      -0.488695       -13.2981   22-B
  47   1.0000      -0.406397       -11.0586   23-B
  48   1.0000      -0.403672       -10.9845   24-B
  49   1.0000      -0.384961       -10.4753   26-A
  50   1.0000      -0.378245       -10.2926   27-A
  51   1.0000      -0.319522        -8.6946   28-A
  52   1.0000      -0.316106        -8.6017   29-A
  53   1.0000      -0.297200        -8.0872   25-B
  54   1.0000      -0.292909        -7.9705   26-B
  55   1.0000      -0.229793        -6.2530   30-A
  56   1.0000      -0.223607        -6.0847   31-A
  57   1.0000      -0.189478        -5.1560   32-A
  58   1.0000      -0.188654        -5.1335   33-A
  59   1.0000      -0.173613        -4.7243   27-B
  60   1.0000      -0.168565        -4.5869   28-B
  61   1.0000      -0.151096        -4.1115   29-B
  62   1.0000      -0.147261        -4.0072   30-B
  63   1.0000      -0.129337        -3.5195   34-A
  64   1.0000      -0.113418        -3.0863   31-B
  65   1.0000      -0.110655        -3.0111   35-A
  66   1.0000      -0.109317        -2.9747   32-B
  67   1.0000      -0.084078        -2.2879   36-A
  68   1.0000      -0.071355        -1.9417   33-B
  69   1.0000      -0.061233        -1.6662   37-A
  70   1.0000      -0.055814        -1.5188   34-B
  71   1.0000      -0.034760        -0.9459   35-B
  72   1.0000      -0.031749        -0.8639   36-B
  73   1.0000      -0.025216        -0.6862   38-A
  74   1.0000      -0.022915        -0.6235   39-A
  75   1.0000      -0.019674        -0.5354   40-A
  76   1.0000      -0.003884        -0.1057   37-B
  77   1.0000       0.005005         0.1362   41-A
  78   1.0000       0.009144         0.2488   42-A
  79   1.0000       0.012477         0.3395   38-B
  80   1.0000       0.024495         0.6665   43-A
  81   1.0000       0.032750         0.8912   44-A
  82   1.0000       0.041802         1.1375   39-B
  83   1.0000       0.051125         1.3912   45-A
  84   1.0000       0.056093         1.5264   46-A
  85   1.0000       0.062944         1.7128   40-B
  86   1.0000       0.090168         2.4536   41-B
  87   0.0000       0.136808         3.7227   42-B
  88   0.0000       0.182229         4.9587   47-A
  89   0.0000       0.182400         4.9633   48-A
  90   0.0000       0.194395         5.2898   43-B
  91   0.0000       0.198078         5.3900   44-B

MULLIKEN ATOMIC CHARGES AND SPIN POPULATIONS
--------------------------------------------
   0 Cu:    0.139550    0.375221
   1 S :   -0.414296    0.163118
   2 C :    0.032128   -0.007763
   3 S :   -0.419194    0.163325
   4 C :    0.027551   -0.007616
   5 S :   -0.414296    0.163118
   6 C :    0.032128   -0.007763
   7 S :   -0.419194    0.163325
   8 C :    0.027551   -0.007616
   9 C :   -0.091308   -0.001477
  10 C :   -0.091308   -0.001477
  11 C :   -0.130013   -0.000867
  12 H :    0.054878    0.001884
  13 C :   -0.130013   -0.000867
  14 H :    0.054878    0.001884
  15 H :    0.023737    0.001121
  16 H :    0.023737    0.001121
  17 C :   -0.091061   -0.001383
  18 C :   -0.091061   -0.001383
  19 C :   -0.121622   -0.000836
  20 H :    0.044064    0.001740
  21 C :   -0.121622   -0.000836
  22 H :    0.044064    0.001740
  23 H :    0.015360    0.001144
  24 H :    0.015360    0.001144
Sum of atomic charges         :   -2.0000000

LOEWDIN ATOMIC CHARGES AND SPIN POPULATIONS
-------------------------------------------
   0 Cu:   -0.893742    0.441966
   1 S :    0.009408    0.124299
   2 C :   -0.040854    0.005044
   3 S :    0.009550    0.124423
   4 C :   -0.039482    0.005111
   5 S :    0.009408    0.124299
   6 C :   -0.040854    0.005044
   7 S :    0.009550    0.124423
   8 C :   -0.039482    0.005111
   9 C :    0.298735    0.003850
  10 C :    0.298735    0.003850
  11 C :    0.302054   -0.000130
  12 H :   -0.436216    0.006197
  13 C :    0.302054   -0.000130
  14 H :   -0.436216    0.006197
  15 H :   -0.410578    0.000219
  16 H :   -0.410578    0.000219
  17 C :    0.289835    0.003783
  18 C :    0.289835    0.003783
  19 C :    0.290908   -0.000121
  20 H :   -0.424295    0.006104
  21 C :    0.290908   -0.000121
  22 H :   -0.424295    0.006104
  23 H :   -0.402197    0.000239
  24 H :   -0.402197    0.000239

  Mayer bond orders larger than 0.100000
B(  0-Cu,  1-S ) :   0.7011 B(  0-Cu,  3-S ) :   0.7020 B(  0-Cu,  5-S ) :   0.7011
B(  0-Cu,  7-S ) :   0.7020 B(  1-S ,  2-C ) :   1.1875 B(  2-C ,  6-C ) :   1.2400
B(  2-C , 17-C ) :   1.3163 B(  3-S ,  4-C ) :   1.1859 B(  4-C ,  8-C ) :   1.2425
B(  4-C , 10-C ) :   1.3174 B(  5-S ,  6-C ) :   1.1875 B(  6-C , 18-C ) :   1.3163
B(  7-S ,  8-C ) :   1.1859 B(  8-C ,  9-C ) :   1.3174 B(  9-C , 13-C ) :   1.3622
B(  9-C , 14-H ) :   0.9772 B( 10-C , 11-C ) :   1.3622 B( 10-C , 12-H ) :   0.9772
B( 11-C , 13-C ) :   1.3346 B( 11-C , 15-H ) :   0.9925 B( 13-C , 16-H ) :   0.9925
B( 17-C , 19-C ) :   1.3615 B( 17-C , 20-H ) :   0.9845 B( 18-C , 21-C ) :   1.3615
B( 18-C , 22-H ) :   0.9845 B( 19-C , 21-C ) :   1.3295 B( 19-C , 23-H ) :   0.9967
B( 21-C , 24-H ) :   0.9967

FINAL SINGLE POINT ENERGY     -3686.908209088376

DIPOLE MOMENT
-------------
                                X             Y             Z
Electronic contribution:     -0.00000      -0.00000      -0.07364
Nuclear contribution   :      0.00000      -0.00000       0.00000
                        -----------------------------------------
Total Dipole Moment    :     -0.00000      -0.00000      -0.07364
                        -----------------------------------------
Magnitude (a.u.)       :      0.07364
Magnitude (Debye)      :      0.18717

Rotational constants in cm-1:     0.033396     0.004803     0.004200
Rotational constants in MHz :  1001.198118   144.001888   125.919615

                             ****ORCA TERMINATED NORMALLY****
TOTAL RUN TIME: 0 days 5 hours 45 minutes 9 seconds 530 msec
