                         Program Version 5.0.4 -  RELEASE  -
|  1> ! nofrozencore ReducedPop printbasis
|  2> ! B3LYP TZVP
|  3>
|  4> %basis
|  5> newgto V "CP(PPP)" end
|  6> end
|  7>
|  8> %pal
|  9> nprocs 8
| 10> end
| 11>
| 12> % sym SymThresh 1e-2 end
| 13> * xyz -2 2
| 14> V -0.2721870710468507 0.26624759231566675 -0.9941373167118551
| 15> S -0.4975504724003406 2.271361817843171 0.3966279314916736
| 16> S 2.1447832587268625 0.5869641655963472 -0.7644700091153109
| 17> S -2.3056843893004157 -0.43179093219496695 0.17915274325438213
| 18> S 0.3305205696274759 -2.1094098566914936 -1.0120030373684168
| 19> O -0.681954753281211 0.6705171693529675 -2.4831704364547846
| 20> C 2.8262469236164103 -0.977038962312749 -1.23166807679204
| 21> C 2.06960757846607 -2.101760069278812 -1.3334593886781607
| 22> C -2.1679697948170764 2.1971152355447097 0.9723914053981131
| 23> C -2.9224286439596012 1.0698294524855805 0.8817259187711611
| 24> S 4.603681676274223 -0.9648226216031371 -1.5432684603683844
| 25> S 2.7625299107415158 -3.7056348870796922 -1.785488331663176
| 26> S -4.618874460542981 0.9791731547428132 1.4904946006671072
| 27> S -2.7820116130414037 3.725242462147844 1.7111503021127143
| 28> C 3.8431675110258596 -4.118098032269638 -0.343965127375187
| 29> C -4.415705284716077 1.1344408457366684 3.3203778016942254
| 30> C 5.28184082152425 -1.9801741458420143 -0.15613138061543444
| 31> C -2.98258177450779 3.278445364911107 3.4924084492598855
| 32> C 5.23921948881274 -3.4959759062489453 -0.346848844218392
| 33> H 4.750295111016509 -1.683140626308755 0.7514498179836252
| 34> H 6.322549508506719 -1.6550842592121768 -0.05649109189533357
| 35> H 5.816357767598402 -3.9562975126257456 0.4726251195345794
| 36> H 5.74879520855308 -3.756716267236406 -1.281690290458472
| 37> H 3.9311106974046965 -5.209178682275324 -0.3653030637493806
| 38> H 3.2931310865069348 -3.844561367222005 0.5599806711581409
| 39> C -4.2763138180634215 2.5554323835548343 3.865071324086025
| 40> H -2.934041818640498 4.233784236268549 4.0250297927665954
| 41> H -2.106229455967038 2.6915237141012294 3.7789192644481724
| 42> H -5.132429091207055 3.154187963989789 3.533094247337943
| 43> H -4.329057471182605 2.5025511003848355 4.965439770216201
| 44> H -3.5585565076727654 0.5182083285368073 3.603441239556974
| 45> H -5.3143709918397155 0.6708648701357794 3.740159872777133
| 46> *
| 47>
| 48> % eprnmr
| 49> gtensor true
| 50> Nuclei = all H {aiso,adip,aorb,fgrad,rho}
| 51> Nuclei = all V {aiso,adip,aorb,fgrad,rho}
| 52> end
| 53>
| 54>                          ****END OF INPUT****

CARTESIAN COORDINATES (ANGSTROEM)
---------------------------------
  V     -0.272422    0.266508   -0.995271
  S     -0.497785    2.271622    0.395494
  S      2.144549    0.587225   -0.765604
  S     -2.305919   -0.431530    0.178019
  S      0.330286   -2.109149   -1.013137
  O     -0.682190    0.670778   -2.484304
  C      2.826012   -0.976778   -1.232802
  C      2.069373   -2.101499   -1.334593
  C     -2.168205    2.197376    0.971258
  C     -2.922663    1.070090    0.880592
  S      4.603447   -0.964562   -1.544402
  S      2.762295   -3.705374   -1.786622
  S     -4.619109    0.979434    1.489361
  S     -2.782246    3.725503    1.710016
  C      3.842933   -4.117837   -0.345099
  C     -4.415940    1.134702    3.319244
  C      5.281606   -1.979913   -0.157265
  C     -2.982817    3.278706    3.491275
  C      5.238985   -3.495715   -0.347983
  H      4.750060   -1.682880    0.750316
  H      6.322315   -1.654824   -0.057625
  H      5.816123   -3.956037    0.471491
  H      5.748560   -3.756456   -1.282824
  H      3.930876   -5.208918   -0.366437
  H      3.292896   -3.844301    0.558847
  C     -4.276549    2.555693    3.863937
  H     -2.934277    4.234045    4.023896
  H     -2.106464    2.691784    3.777785
  H     -5.132664    3.154449    3.531960
  H     -4.329292    2.502812    4.964306
  H     -3.558791    0.518469    3.602307
  H     -5.314606    0.671126    3.739026

 Total Charge           Charge          ....   -2
 Multiplicity           Mult            ....    2
 Number of Electrons    NEL             ....  233
 Basis Dimension        Dim             ....  517

ORBITAL ENERGIES
----------------
                 SPIN UP ORBITALS
  NO   OCC          E(Eh)            E(eV)
   0   1.0000    -196.639846     -5350.8422
   1   1.0000     -88.676693     -2413.0155
   2   1.0000     -88.676611     -2413.0133
   3   1.0000     -88.676583     -2413.0125
   4   1.0000     -88.676576     -2413.0123
   5   1.0000     -88.611854     -2411.2511
   6   1.0000     -88.611814     -2411.2500
   7   1.0000     -88.611807     -2411.2499
   8   1.0000     -88.611721     -2411.2475
   9   1.0000     -22.015666      -599.0767
  10   1.0000     -18.856998      -513.1250
  11   1.0000     -18.522482      -504.0224
  12   1.0000     -18.516715      -503.8654
  13   1.0000     -18.516684      -503.8646
  14   1.0000     -10.015710      -272.5413
  15   1.0000     -10.015692      -272.5408
  16   1.0000     -10.015612      -272.5387
  17   1.0000     -10.015602      -272.5384
  18   1.0000     -10.005009      -272.2501
  19   1.0000     -10.004923      -272.2478
  20   1.0000      -9.991862      -271.8924
  21   1.0000      -9.991826      -271.8914
  22   1.0000      -9.991139      -271.8727
  23   1.0000      -9.991113      -271.8720
  24   1.0000      -7.730283      -210.3517
  25   1.0000      -7.730217      -210.3499
  26   1.0000      -7.730189      -210.3491
  27   1.0000      -7.730178      -210.3488
  28   1.0000      -7.666258      -208.6095
  29   1.0000      -7.666248      -208.6092
  30   1.0000      -7.666227      -208.6086
  31   1.0000      -7.666160      -208.6068
  32   1.0000      -5.695537      -154.9834
  33   1.0000      -5.695474      -154.9817
  34   1.0000      -5.695440      -154.9808
  35   1.0000      -5.695438      -154.9807
  36   1.0000      -5.691631      -154.8772
  37   1.0000      -5.691563      -154.8753
  38   1.0000      -5.691534      -154.8745
  39   1.0000      -5.691524      -154.8742
  40   1.0000      -5.685036      -154.6977
  41   1.0000      -5.684964      -154.6957
  42   1.0000      -5.684941      -154.6951
  43   1.0000      -5.684938      -154.6950
  44   1.0000      -5.631101      -153.2301
  45   1.0000      -5.631087      -153.2297
  46   1.0000      -5.631082      -153.2295
  47   1.0000      -5.631015      -153.2277
  48   1.0000      -5.624706      -153.0560
  49   1.0000      -5.624692      -153.0556
  50   1.0000      -5.624674      -153.0552
  51   1.0000      -5.624594      -153.0530
  52   1.0000      -5.624241      -153.0434
  53   1.0000      -5.624214      -153.0426
  54   1.0000      -5.624209      -153.0425
  55   1.0000      -5.624131      -153.0404
  56   1.0000      -2.409370       -65.5623
  57   1.0000      -1.450751       -39.4769
  58   1.0000      -1.439090       -39.1596
  59   1.0000      -1.438126       -39.1334
  60   1.0000      -0.643585       -17.5128
  61   1.0000      -0.643520       -17.5111
  62   1.0000      -0.618004       -16.8167
  63   1.0000      -0.593727       -16.1561
  64   1.0000      -0.593281       -16.1440
  65   1.0000      -0.575587       -15.6625
  66   1.0000      -0.575500       -15.6601
  67   1.0000      -0.491390       -13.3714
  68   1.0000      -0.489525       -13.3207
  69   1.0000      -0.487464       -13.2646
  70   1.0000      -0.486320       -13.2334
  71   1.0000      -0.422968       -11.5095
  72   1.0000      -0.420144       -11.4327
  73   1.0000      -0.412470       -11.2239
  74   1.0000      -0.407388       -11.0856
  75   1.0000      -0.376391       -10.2421
  76   1.0000      -0.373198       -10.1552
  77   1.0000      -0.292881        -7.9697
  78   1.0000      -0.292688        -7.9645
  79   1.0000      -0.277798        -7.5593
  80   1.0000      -0.277538        -7.5522
  81   1.0000      -0.260514        -7.0890
  82   1.0000      -0.255847        -6.9620
  83   1.0000      -0.242310        -6.5936
  84   1.0000      -0.239392        -6.5142
  85   1.0000      -0.195256        -5.3132
  86   1.0000      -0.192593        -5.2407
  87   1.0000      -0.192089        -5.2270
  88   1.0000      -0.191531        -5.2118
  89   1.0000      -0.184825        -5.0293
  90   1.0000      -0.184596        -5.0231
  91   1.0000      -0.180751        -4.9185
  92   1.0000      -0.150577        -4.0974
  93   1.0000      -0.149713        -4.0739
  94   1.0000      -0.143494        -3.9047
  95   1.0000      -0.143278        -3.8988
  96   1.0000      -0.141941        -3.8624
  97   1.0000      -0.097206        -2.6451
  98   1.0000      -0.096306        -2.6206
  99   1.0000      -0.089511        -2.4357
 100   1.0000      -0.083293        -2.2665
 101   1.0000      -0.081365        -2.2140
 102   1.0000      -0.079953        -2.1756
 103   1.0000      -0.069607        -1.8941
 104   1.0000      -0.049708        -1.3526
 105   1.0000      -0.038407        -1.0451
 106   1.0000      -0.037707        -1.0261
 107   1.0000      -0.035814        -0.9746
 108   1.0000      -0.032222        -0.8768
 109   1.0000      -0.013044        -0.3550
 110   1.0000      -0.003686        -0.1003
 111   1.0000      -0.003567        -0.0971
 112   1.0000       0.006911         0.1881
 113   1.0000       0.010487         0.2854
 114   1.0000       0.016552         0.4504
 115   1.0000       0.033801         0.9198
 116   1.0000       0.059721         1.6251
 117   0.0000       0.188538         5.1304
 118   0.0000       0.195423         5.3177
 119   0.0000       0.196218         5.3394
 120   0.0000       0.196488         5.3467
 121   0.0000       0.211673         5.7599

                 SPIN DOWN ORBITALS
  NO   OCC          E(Eh)            E(eV)
   0   1.0000    -196.639987     -5350.8461
   1   1.0000     -88.676707     -2413.0159
   2   1.0000     -88.676624     -2413.0136
   3   1.0000     -88.676596     -2413.0129
   4   1.0000     -88.676590     -2413.0127
   5   1.0000     -88.612013     -2411.2555
   6   1.0000     -88.611973     -2411.2544
   7   1.0000     -88.611967     -2411.2542
   8   1.0000     -88.611881     -2411.2519
   9   1.0000     -22.000991      -598.6774
  10   1.0000     -18.860579      -513.2224
  11   1.0000     -18.517353      -503.8828
  12   1.0000     -18.501177      -503.4426
  13   1.0000     -18.500581      -503.4264
  14   1.0000     -10.015706      -272.5412
  15   1.0000     -10.015689      -272.5407
  16   1.0000     -10.015608      -272.5385
  17   1.0000     -10.015597      -272.5383
  18   1.0000     -10.005009      -272.2501
  19   1.0000     -10.004923      -272.2478
  20   1.0000      -9.991606      -271.8854
  21   1.0000      -9.991571      -271.8845
  22   1.0000      -9.990886      -271.8658
  23   1.0000      -9.990859      -271.8651
  24   1.0000      -7.730297      -210.3521
  25   1.0000      -7.730231      -210.3503
  26   1.0000      -7.730203      -210.3495
  27   1.0000      -7.730192      -210.3492
  28   1.0000      -7.666406      -208.6135
  29   1.0000      -7.666396      -208.6132
  30   1.0000      -7.666374      -208.6127
  31   1.0000      -7.666308      -208.6108
  32   1.0000      -5.695554      -154.9839
  33   1.0000      -5.695490      -154.9822
  34   1.0000      -5.695457      -154.9813
  35   1.0000      -5.695455      -154.9812
  36   1.0000      -5.691652      -154.8777
  37   1.0000      -5.691583      -154.8759
  38   1.0000      -5.691554      -154.8751
  39   1.0000      -5.691544      -154.8748
  40   1.0000      -5.685053      -154.6982
  41   1.0000      -5.684981      -154.6962
  42   1.0000      -5.684959      -154.6956
  43   1.0000      -5.684955      -154.6955
  44   1.0000      -5.631272      -153.2347
  45   1.0000      -5.631258      -153.2343
  46   1.0000      -5.631252      -153.2342
  47   1.0000      -5.631186      -153.2324
  48   1.0000      -5.625097      -153.0667
  49   1.0000      -5.625081      -153.0662
  50   1.0000      -5.625064      -153.0658
  51   1.0000      -5.624986      -153.0637
  52   1.0000      -5.624374      -153.0470
  53   1.0000      -5.624349      -153.0463
  54   1.0000      -5.624343      -153.0461
  55   1.0000      -5.624264      -153.0440
  56   1.0000      -2.365173       -64.3596
  57   1.0000      -1.431933       -38.9649
  58   1.0000      -1.377631       -37.4872
  59   1.0000      -1.377148       -37.4741
  60   1.0000      -0.643537       -17.5115
  61   1.0000      -0.643469       -17.5097
  62   1.0000      -0.625673       -17.0254
  63   1.0000      -0.593538       -16.1510
  64   1.0000      -0.593070       -16.1382
  65   1.0000      -0.575581       -15.6623
  66   1.0000      -0.575494       -15.6600
  67   1.0000      -0.491412       -13.3720
  68   1.0000      -0.489560       -13.3216
  69   1.0000      -0.487464       -13.2646
  70   1.0000      -0.486337       -13.2339
  71   1.0000      -0.423210       -11.5161
  72   1.0000      -0.420455       -11.4412
  73   1.0000      -0.412480       -11.2242
  74   1.0000      -0.407484       -11.0882
  75   1.0000      -0.376343       -10.2408
  76   1.0000      -0.373224       -10.1559
  77   1.0000      -0.292855        -7.9690
  78   1.0000      -0.292678        -7.9642
  79   1.0000      -0.277772        -7.5586
  80   1.0000      -0.277523        -7.5518
  81   1.0000      -0.260317        -7.0836
  82   1.0000      -0.255813        -6.9610
  83   1.0000      -0.242203        -6.5907
  84   1.0000      -0.239316        -6.5121
  85   1.0000      -0.194827        -5.3015
  86   1.0000      -0.192546        -5.2394
  87   1.0000      -0.192033        -5.2255
  88   1.0000      -0.191508        -5.2112
  89   1.0000      -0.184766        -5.0277
  90   1.0000      -0.184544        -5.0217
  91   1.0000      -0.178632        -4.8608
  92   1.0000      -0.149899        -4.0790
  93   1.0000      -0.149410        -4.0657
  94   1.0000      -0.143158        -3.8955
  95   1.0000      -0.143075        -3.8933
  96   1.0000      -0.141879        -3.8607
  97   1.0000      -0.095812        -2.6072
  98   1.0000      -0.095636        -2.6024
  99   1.0000      -0.089661        -2.4398
 100   1.0000      -0.083272        -2.2659
 101   1.0000      -0.081849        -2.2272
 102   1.0000      -0.080919        -2.2019
 103   1.0000      -0.070896        -1.9292
 104   1.0000      -0.045549        -1.2394
 105   1.0000      -0.038010        -1.0343
 106   1.0000      -0.037554        -1.0219
 107   1.0000      -0.034772        -0.9462
 108   1.0000      -0.032194        -0.8760
 109   1.0000      -0.012155        -0.3307
 110   1.0000      -0.004901        -0.1334
 111   1.0000      -0.002661        -0.0724
 112   1.0000       0.007755         0.2110
 113   1.0000       0.011385         0.3098
 114   1.0000       0.034061         0.9268
 115   1.0000       0.058936         1.6037
 116   0.0000       0.185703         5.0532
 117   0.0000       0.189698         5.1619
 118   0.0000       0.196080         5.3356
 119   0.0000       0.196247         5.3401
 120   0.0000       0.196794         5.3550

MULLIKEN ATOMIC CHARGES AND SPIN POPULATIONS
--------------------------------------------
   0 V :    0.448063    1.199120
   1 S :   -0.255151   -0.024196
   2 S :   -0.255248   -0.024072
   3 S :   -0.255361   -0.024097
   4 S :   -0.255507   -0.023977
   5 O :   -0.505568   -0.139001
   6 C :   -0.116057    0.008909
   7 C :   -0.114435    0.008932
   8 C :   -0.114976    0.008983
   9 C :   -0.115247    0.008916
  10 S :   -0.044093   -0.000200
  11 S :   -0.043962   -0.000234
  12 S :   -0.044085   -0.000230
  13 S :   -0.044105   -0.000260
  14 C :   -0.339466    0.000340
  15 C :   -0.338466    0.000351
  16 C :   -0.338238    0.000322
  17 C :   -0.338505    0.000371
  18 C :   -0.082660    0.000113
  19 H :    0.145770   -0.000104
  20 H :    0.101686    0.000030
  21 H :    0.043981    0.000037
  22 H :    0.078675    0.000014
  23 H :    0.101729    0.000032
  24 H :    0.146331   -0.000106
  25 C :   -0.082800    0.000109
  26 H :    0.101592    0.000039
  27 H :    0.145918   -0.000112
  28 H :    0.078616    0.000009
  29 H :    0.043908    0.000034
  30 H :    0.146156   -0.000108
  31 H :    0.101507    0.000037
Sum of atomic charges         :   -2.0000000

LOEWDIN ATOMIC CHARGES AND SPIN POPULATIONS
-------------------------------------------
   0 V :   -0.242288    1.153166
   1 S :    0.087145   -0.016367
   2 S :    0.087135   -0.016270
   3 S :    0.086948   -0.016277
   4 S :    0.086856   -0.016235
   5 O :   -0.350210   -0.124396
   6 C :   -0.552826    0.009998
   7 C :   -0.552210    0.009971
   8 C :   -0.552116    0.009969
   9 C :   -0.552499    0.009989
  10 S :    0.336998   -0.001036
  11 S :    0.336852   -0.001055
  12 S :    0.336910   -0.001055
  13 S :    0.336891   -0.001068
  14 C :   -0.293977    0.000187
  15 C :   -0.294049    0.000189
  16 C :   -0.294041    0.000177
  17 C :   -0.294125    0.000199
  18 C :   -0.185104   -0.000041
  19 H :    0.065639   -0.000027
  20 H :    0.047315    0.000010
  21 H :    0.046738    0.000019
  22 H :    0.053597    0.000010
  23 H :    0.047322    0.000011
  24 H :    0.065804   -0.000027
  25 C :   -0.185094   -0.000044
  26 H :    0.047311    0.000015
  27 H :    0.065694   -0.000027
  28 H :    0.053619    0.000009
  29 H :    0.046723    0.000020
  30 H :    0.065753   -0.000027
  31 H :    0.047291    0.000014

  Mayer bond orders larger than 0.100000
B(  0-V ,  1-S ) :   0.7877 B(  0-V ,  2-S ) :   0.7897 B(  0-V ,  3-S ) :   0.7898
B(  0-V ,  4-S ) :   0.7872 B(  0-V ,  5-O ) :   2.1099 B(  1-S ,  8-C ) :   1.1355
B(  2-S ,  6-C ) :   1.1343 B(  3-S ,  9-C ) :   1.1346 B(  4-S ,  7-C ) :   1.1355
B(  6-C ,  7-C ) :   1.5170 B(  6-C , 10-S ) :   0.9537 B(  7-C , 11-S ) :   0.9537
B(  8-C ,  9-C ) :   1.5173 B(  8-C , 13-S ) :   0.9536 B(  9-C , 12-S ) :   0.9539
B( 10-S , 16-C ) :   1.0055 B( 11-S , 14-C ) :   1.0054 B( 12-S , 15-C ) :   1.0053
B( 13-S , 17-C ) :   1.0058 B( 14-C , 18-C ) :   0.8779 B( 14-C , 23-H ) :   0.9702
B( 14-C , 24-H ) :   0.9752 B( 15-C , 25-C ) :   0.8779 B( 15-C , 30-H ) :   0.9751
B( 15-C , 31-H ) :   0.9701 B( 16-C , 18-C ) :   0.8778 B( 16-C , 19-H ) :   0.9753
B( 16-C , 20-H ) :   0.9701 B( 17-C , 25-C ) :   0.8782 B( 17-C , 26-H ) :   0.9702
B( 17-C , 27-H ) :   0.9750 B( 18-C , 21-H ) :   0.9523 B( 18-C , 22-H ) :   0.9735
B( 25-C , 28-H ) :   0.9736 B( 25-C , 29-H ) :   0.9523

FINAL SINGLE POINT ENERGY     -4592.724398161155

DIPOLE MOMENT
-------------
                                X             Y             Z
Electronic contribution:     -6.58298       6.42768     -24.07008
Nuclear contribution   :      7.34384      -7.17186      26.85066
                        -----------------------------------------
Total Dipole Moment    :      0.76086      -0.74418       2.78058
                        -----------------------------------------
Magnitude (a.u.)       :      2.97731
Magnitude (Debye)      :      7.56772

Rotational constants in cm-1:     0.013110     0.002527     0.002399
Rotational constants in MHz :   393.039251    75.745833    71.929326

                             ****ORCA TERMINATED NORMALLY****
TOTAL RUN TIME: 0 days 0 hours 27 minutes 31 seconds 357 msec
