                         Program Version 5.0.4 -  RELEASE  -
|  1> ! nofrozencore ReducedPop printbasis
|  2> ! B3LYP TZVP
|  3>
|  4> %basis
|  5> newgto V "CP(PPP)" end
|  6> end
|  7>
|  8> %pal
|  9> nprocs 8
| 10> end
| 11>
| 12> % sym SymThresh 1e-2 end
| 13> * xyz -2 2
| 14> V 1.0135715163971992 -0.05904388037099268 0.18447150713055377
| 15> S 0.5865240556116208 2.102589876850299 -0.20294605235268726
| 16> S 0.02203673737499352 0.10800148462391684 2.1897845171748966
| 17> S 0.7777338970740539 -0.15687801465708165 -2.044213768331301
| 18> S 0.24659931611824168 -2.152996333235629 0.3561587105279802
| 19> O 2.5858942245090377 -0.1442460498835237 0.4690479393929805
| 20> C -0.35780428718795737 -1.4827437789369828 2.8553023480821773
| 21> C -0.2581891079819429 -2.528988804101136 2.009979401594851
| 22> C 0.7549432071448906 2.498564617391045 -1.9191686821348792
| 23> C 0.8446383002136034 1.4531848309013822 -2.7670708011764713
| 24> S -0.9385571718052602 -1.6712595930139664 4.537919276763383
| 25> S -0.70692413224977 -4.190498332959594 2.5107206695735362
| 26> S 0.9185067328999956 1.6720888727504144 -4.542506892682896
| 27> S 0.7045363188481667 4.190470796834716 -2.5098330576532972
| 28> C -2.5464089883374474 -4.167191011954846 2.7968821316918264
| 29> C -0.731289606607149 2.3724733005659893 -5.044298619640681
| 30> C -2.7275625923527826 -2.1696848523739387 4.412847487643987
| 31> C -0.904550007241812 4.372489720659479 -3.426960892911245
| 32> C -3.030332886687477 -3.646901773794117 4.151511499754117
| 33> H -3.1880031742628163 -1.5393965722400689 3.648283237364628
| 34> H -3.1432805439971636 -1.8763943802984655 5.383079224289592
| 35> H -4.1243411569166675 -3.781250291502098 4.196916175381228
| 36> H -2.600737087551163 -4.258404690966177 4.954512583345223
| 37> H -2.838930561152467 -5.21639524661944 2.679435186381574
| 38> H -2.9975576575314897 -3.600611307318504 1.97889241528297
| 39> C -0.9393451122203765 3.879111509869696 -4.874506863965845
| 40> H -1.092616612009678 5.451632880215113 -3.402234159253735
| 41> H -1.678975457500758 3.884979293518557 -2.829804778575048
| 42> H -0.19086103130302431 4.422138314882075 -5.465054600912956
| 43> H -1.9263773186913071 4.133756560631922 -5.296645241070355
| 44> H -1.499810367592979 1.8120180679003368 -4.506251944800617
| 45> H -0.8076539831125487 2.110078893964215 -6.105356010035303
| 46> *
| 47>
| 48> % eprnmr
| 49> gtensor true
| 50> Nuclei = all H {aiso,adip,aorb,fgrad,rho}
| 51> Nuclei = all V {aiso,adip,aorb,fgrad,rho}
| 52> end
| 53>
| 54>                          ****END OF INPUT****

CARTESIAN COORDINATES (ANGSTROEM)
---------------------------------
  V      1.014720   -0.059158    0.184749
  S      0.587672    2.102476   -0.202669
  S      0.023185    0.107888    2.190062
  S      0.778882   -0.156992   -2.043936
  S      0.247748   -2.153110    0.356436
  O      2.587043   -0.144360    0.469325
  C     -0.356656   -1.482858    2.855580
  C     -0.257041   -2.529103    2.010257
  C      0.756092    2.498451   -1.918891
  C      0.845787    1.453071   -2.766793
  S     -0.937409   -1.671373    4.538197
  S     -0.705776   -4.190612    2.510998
  S      0.919655    1.671975   -4.542230
  S      0.705685    4.190357   -2.509556
  C     -2.545261   -4.167305    2.797159
  C     -0.730141    2.372360   -5.044021
  C     -2.726414   -2.169799    4.413125
  C     -0.903402    4.372376   -3.426684
  C     -3.029184   -3.647016    4.151789
  H     -3.186855   -1.539510    3.648561
  H     -3.142132   -1.876508    5.383357
  H     -4.123193   -3.781364    4.197193
  H     -2.599589   -4.258518    4.954790
  H     -2.837782   -5.216509    2.679712
  H     -2.996409   -3.600725    1.979170
  C     -0.938197    3.878998   -4.874230
  H     -1.091468    5.451519   -3.401957
  H     -1.677827    3.884866   -2.829527
  H     -0.189713    4.422025   -5.464777
  H     -1.925229    4.133643   -5.296368
  H     -1.498662    1.811904   -4.505975
  H     -0.806506    2.109965   -6.105079

 Total Charge           Charge          ....   -2
 Multiplicity           Mult            ....    2
 Number of Electrons    NEL             ....  233
 Basis Dimension        Dim             ....  517

ORBITAL ENERGIES
----------------
                 SPIN UP ORBITALS
  NO   OCC          E(Eh)            E(eV)
   0   1.0000    -196.603977     -5349.8662
   1   1.0000     -88.678109     -2413.0540
   2   1.0000     -88.677992     -2413.0508
   3   1.0000     -88.677965     -2413.0501
   4   1.0000     -88.677924     -2413.0490
   5   1.0000     -88.604208     -2411.0431
   6   1.0000     -88.604173     -2411.0421
   7   1.0000     -88.604054     -2411.0389
   8   1.0000     -88.604011     -2411.0377
   9   1.0000     -21.983024      -598.1885
  10   1.0000     -18.831377      -512.4278
  11   1.0000     -18.489402      -503.1222
  12   1.0000     -18.484108      -502.9781
  13   1.0000     -18.484098      -502.9779
  14   1.0000     -10.018074      -272.6057
  15   1.0000     -10.018015      -272.6041
  16   1.0000     -10.018004      -272.6037
  17   1.0000     -10.017969      -272.6028
  18   1.0000     -10.008430      -272.3432
  19   1.0000     -10.008415      -272.3428
  20   1.0000      -9.986562      -271.7482
  21   1.0000      -9.986551      -271.7479
  22   1.0000      -9.985768      -271.7266
  23   1.0000      -9.985766      -271.7265
  24   1.0000      -7.731386      -210.3817
  25   1.0000      -7.731306      -210.3795
  26   1.0000      -7.731278      -210.3788
  27   1.0000      -7.731251      -210.3780
  28   1.0000      -7.660816      -208.4614
  29   1.0000      -7.660780      -208.4604
  30   1.0000      -7.660665      -208.4573
  31   1.0000      -7.660611      -208.4558
  32   1.0000      -5.696715      -155.0155
  33   1.0000      -5.696637      -155.0134
  34   1.0000      -5.696609      -155.0126
  35   1.0000      -5.696587      -155.0120
  36   1.0000      -5.692643      -154.9047
  37   1.0000      -5.692558      -154.9024
  38   1.0000      -5.692532      -154.9017
  39   1.0000      -5.692496      -154.9007
  40   1.0000      -5.686218      -154.7299
  41   1.0000      -5.686132      -154.7275
  42   1.0000      -5.686108      -154.7269
  43   1.0000      -5.686083      -154.7262
  44   1.0000      -5.625551      -153.0790
  45   1.0000      -5.625501      -153.0777
  46   1.0000      -5.625418      -153.0754
  47   1.0000      -5.625358      -153.0738
  48   1.0000      -5.618965      -152.8998
  49   1.0000      -5.618930      -152.8989
  50   1.0000      -5.618801      -152.8953
  51   1.0000      -5.618751      -152.8940
  52   1.0000      -5.618737      -152.8936
  53   1.0000      -5.618718      -152.8931
  54   1.0000      -5.618588      -152.8895
  55   1.0000      -5.618526      -152.8879
  56   1.0000      -2.382365       -64.8274
  57   1.0000      -1.423542       -38.7365
  58   1.0000      -1.415707       -38.5233
  59   1.0000      -1.414310       -38.4853
  60   1.0000      -0.643999       -17.5241
  61   1.0000      -0.643791       -17.5184
  62   1.0000      -0.600837       -16.3496
  63   1.0000      -0.599109       -16.3026
  64   1.0000      -0.594321       -16.1723
  65   1.0000      -0.572727       -15.5847
  66   1.0000      -0.572703       -15.5841
  67   1.0000      -0.499940       -13.6041
  68   1.0000      -0.496797       -13.5185
  69   1.0000      -0.482948       -13.1417
  70   1.0000      -0.482087       -13.1182
  71   1.0000      -0.423407       -11.5215
  72   1.0000      -0.420432       -11.4405
  73   1.0000      -0.418519       -11.3885
  74   1.0000      -0.411621       -11.2008
  75   1.0000      -0.374682       -10.1956
  76   1.0000      -0.368693       -10.0327
  77   1.0000      -0.295658        -8.0453
  78   1.0000      -0.295055        -8.0288
  79   1.0000      -0.278381        -7.5751
  80   1.0000      -0.278104        -7.5676
  81   1.0000      -0.261972        -7.1286
  82   1.0000      -0.257117        -6.9965
  83   1.0000      -0.243796        -6.6340
  84   1.0000      -0.241919        -6.5829
  85   1.0000      -0.198369        -5.3979
  86   1.0000      -0.194697        -5.2980
  87   1.0000      -0.192959        -5.2507
  88   1.0000      -0.192211        -5.2303
  89   1.0000      -0.190869        -5.1938
  90   1.0000      -0.187003        -5.0886
  91   1.0000      -0.186659        -5.0792
  92   1.0000      -0.152504        -4.1498
  93   1.0000      -0.150600        -4.0980
  94   1.0000      -0.145413        -3.9569
  95   1.0000      -0.143388        -3.9018
  96   1.0000      -0.142837        -3.8868
  97   1.0000      -0.100034        -2.7221
  98   1.0000      -0.090263        -2.4562
  99   1.0000      -0.090079        -2.4512
 100   1.0000      -0.087564        -2.3827
 101   1.0000      -0.070994        -1.9319
 102   1.0000      -0.066453        -1.8083
 103   1.0000      -0.059716        -1.6249
 104   1.0000      -0.054531        -1.4839
 105   1.0000      -0.041112        -1.1187
 106   1.0000      -0.033694        -0.9169
 107   1.0000      -0.028203        -0.7675
 108   1.0000      -0.025234        -0.6866
 109   1.0000      -0.024239        -0.6596
 110   1.0000      -0.004677        -0.1273
 111   1.0000       0.009748         0.2652
 112   1.0000       0.015856         0.4315
 113   1.0000       0.024514         0.6671
 114   1.0000       0.027701         0.7538
 115   1.0000       0.042250         1.1497
 116   1.0000       0.062818         1.7094
 117   0.0000       0.183206         4.9853
 118   0.0000       0.193826         5.2743
 119   0.0000       0.194221         5.2850
 120   0.0000       0.194729         5.2989
 121   0.0000       0.230370         6.2687

                 SPIN DOWN ORBITALS
  NO   OCC          E(Eh)            E(eV)
   0   1.0000    -196.604067     -5349.8687
   1   1.0000     -88.678120     -2413.0543
   2   1.0000     -88.678003     -2413.0511
   3   1.0000     -88.677976     -2413.0504
   4   1.0000     -88.677935     -2413.0493
   5   1.0000     -88.604301     -2411.0456
   6   1.0000     -88.604265     -2411.0446
   7   1.0000     -88.604144     -2411.0413
   8   1.0000     -88.604102     -2411.0402
   9   1.0000     -21.970606      -597.8506
  10   1.0000     -18.834256      -512.5062
  11   1.0000     -18.485127      -503.0059
  12   1.0000     -18.471643      -502.6390
  13   1.0000     -18.469746      -502.5873
  14   1.0000     -10.018072      -272.6056
  15   1.0000     -10.018012      -272.6040
  16   1.0000     -10.018003      -272.6037
  17   1.0000     -10.017967      -272.6027
  18   1.0000     -10.008425      -272.3431
  19   1.0000     -10.008410      -272.3427
  20   1.0000      -9.986042      -271.7340
  21   1.0000      -9.986031      -271.7337
  22   1.0000      -9.985258      -271.7127
  23   1.0000      -9.985256      -271.7126
  24   1.0000      -7.731397      -210.3820
  25   1.0000      -7.731318      -210.3799
  26   1.0000      -7.731290      -210.3791
  27   1.0000      -7.731263      -210.3784
  28   1.0000      -7.660890      -208.4634
  29   1.0000      -7.660854      -208.4624
  30   1.0000      -7.660735      -208.4592
  31   1.0000      -7.660683      -208.4578
  32   1.0000      -5.696734      -155.0160
  33   1.0000      -5.696655      -155.0139
  34   1.0000      -5.696628      -155.0131
  35   1.0000      -5.696605      -155.0125
  36   1.0000      -5.692671      -154.9054
  37   1.0000      -5.692585      -154.9031
  38   1.0000      -5.692559      -154.9024
  39   1.0000      -5.692523      -154.9014
  40   1.0000      -5.686216      -154.7298
  41   1.0000      -5.686130      -154.7275
  42   1.0000      -5.686106      -154.7268
  43   1.0000      -5.686082      -154.7262
  44   1.0000      -5.625729      -153.0839
  45   1.0000      -5.625678      -153.0825
  46   1.0000      -5.625600      -153.0803
  47   1.0000      -5.625539      -153.0787
  48   1.0000      -5.619049      -152.9021
  49   1.0000      -5.619010      -152.9010
  50   1.0000      -5.618900      -152.8981
  51   1.0000      -5.618885      -152.8976
  52   1.0000      -5.618884      -152.8976
  53   1.0000      -5.618830      -152.8961
  54   1.0000      -5.618738      -152.8936
  55   1.0000      -5.618686      -152.8922
  56   1.0000      -2.344424       -63.7950
  57   1.0000      -1.407657       -38.3043
  58   1.0000      -1.363957       -37.1152
  59   1.0000      -1.360907       -37.0322
  60   1.0000      -0.643823       -17.5193
  61   1.0000      -0.643617       -17.5137
  62   1.0000      -0.602632       -16.3984
  63   1.0000      -0.598513       -16.2864
  64   1.0000      -0.598016       -16.2728
  65   1.0000      -0.572665       -15.5830
  66   1.0000      -0.572643       -15.5824
  67   1.0000      -0.499735       -13.5985
  68   1.0000      -0.496618       -13.5137
  69   1.0000      -0.482466       -13.1286
  70   1.0000      -0.481665       -13.1068
  71   1.0000      -0.423149       -11.5145
  72   1.0000      -0.420317       -11.4374
  73   1.0000      -0.418021       -11.3749
  74   1.0000      -0.411343       -11.1932
  75   1.0000      -0.374199       -10.1825
  76   1.0000      -0.368242       -10.0204
  77   1.0000      -0.295555        -8.0425
  78   1.0000      -0.294980        -8.0268
  79   1.0000      -0.278327        -7.5737
  80   1.0000      -0.278055        -7.5663
  81   1.0000      -0.261263        -7.1093
  82   1.0000      -0.256783        -6.9874
  83   1.0000      -0.243595        -6.6286
  84   1.0000      -0.241705        -6.5771
  85   1.0000      -0.196613        -5.3501
  86   1.0000      -0.194469        -5.2918
  87   1.0000      -0.192047        -5.2259
  88   1.0000      -0.190803        -5.1920
  89   1.0000      -0.190027        -5.1709
  90   1.0000      -0.186900        -5.0858
  91   1.0000      -0.186415        -5.0726
  92   1.0000      -0.150495        -4.0952
  93   1.0000      -0.149713        -4.0739
  94   1.0000      -0.144860        -3.9418
  95   1.0000      -0.143069        -3.8931
  96   1.0000      -0.142207        -3.8697
  97   1.0000      -0.099127        -2.6974
  98   1.0000      -0.089451        -2.4341
  99   1.0000      -0.089202        -2.4273
 100   1.0000      -0.086401        -2.3511
 101   1.0000      -0.069392        -1.8883
 102   1.0000      -0.066706        -1.8151
 103   1.0000      -0.054768        -1.4903
 104   1.0000      -0.050861        -1.3840
 105   1.0000      -0.040354        -1.0981
 106   1.0000      -0.033758        -0.9186
 107   1.0000      -0.027170        -0.7393
 108   1.0000      -0.024219        -0.6590
 109   1.0000      -0.023629        -0.6430
 110   1.0000      -0.002536        -0.0690
 111   1.0000       0.008275         0.2252
 112   1.0000       0.016653         0.4532
 113   1.0000       0.027206         0.7403
 114   1.0000       0.028055         0.7634
 115   1.0000       0.061921         1.6849
 116   0.0000       0.177603         4.8328
 117   0.0000       0.183955         5.0057
 118   0.0000       0.193979         5.2784
 119   0.0000       0.194289         5.2869
 120   0.0000       0.194857         5.3023

MULLIKEN ATOMIC CHARGES AND SPIN POPULATIONS
--------------------------------------------
   0 V :    0.200314    1.067534
   1 S :   -0.187355   -0.005694
   2 S :   -0.186861   -0.005544
   3 S :   -0.187433   -0.005797
   4 S :   -0.187295   -0.005085
   5 O :   -0.500690   -0.113568
   6 C :   -0.126045    0.015005
   7 C :   -0.119881    0.016166
   8 C :   -0.120580    0.016239
   9 C :   -0.124366    0.015174
  10 S :   -0.045180    0.001029
  11 S :   -0.047129    0.000996
  12 S :   -0.045343    0.000983
  13 S :   -0.047459    0.000962
  14 C :   -0.329096    0.000389
  15 C :   -0.330545    0.000363
  16 C :   -0.330935    0.000344
  17 C :   -0.327875    0.000412
  18 C :   -0.094221    0.000090
  19 H :    0.143297   -0.000099
  20 H :    0.101053   -0.000049
  21 H :    0.049440    0.000179
  22 H :    0.078086    0.000056
  23 H :    0.101299   -0.000047
  24 H :    0.143717   -0.000099
  25 C :   -0.094162    0.000132
  26 H :    0.100829   -0.000036
  27 H :    0.143301   -0.000104
  28 H :    0.077658    0.000044
  29 H :    0.049433    0.000172
  30 H :    0.143317   -0.000104
  31 H :    0.100708   -0.000039
Sum of atomic charges         :   -2.0000000

LOEWDIN ATOMIC CHARGES AND SPIN POPULATIONS
-------------------------------------------
   0 V :   -0.605705    1.013704
   1 S :    0.181807    0.001524
   2 S :    0.180874    0.001242
   3 S :    0.180507    0.001160
   4 S :    0.181922    0.001911
   5 O :   -0.371682   -0.099448
   6 C :   -0.560113    0.019641
   7 C :   -0.558628    0.020548
   8 C :   -0.558307    0.020454
   9 C :   -0.559605    0.019663
  10 S :    0.341633   -0.000295
  11 S :    0.340568   -0.000309
  12 S :    0.341383   -0.000313
  13 S :    0.340521   -0.000311
  14 C :   -0.292207    0.000169
  15 C :   -0.292665    0.000160
  16 C :   -0.292565    0.000135
  17 C :   -0.292491    0.000196
  18 C :   -0.182509    0.000099
  19 H :    0.065107   -0.000026
  20 H :    0.048383   -0.000036
  21 H :    0.049016    0.000068
  22 H :    0.053610    0.000037
  23 H :    0.048393   -0.000034
  24 H :    0.065333   -0.000024
  25 C :   -0.182410    0.000091
  26 H :    0.048424   -0.000029
  27 H :    0.065175   -0.000023
  28 H :    0.053594    0.000033
  29 H :    0.049101    0.000071
  30 H :    0.065124   -0.000026
  31 H :    0.048413   -0.000030

  Mayer bond orders larger than 0.100000
B(  0-V ,  1-S ) :   0.9014 B(  0-V ,  2-S ) :   0.8978 B(  0-V ,  3-S ) :   0.8979
B(  0-V ,  4-S ) :   0.9020 B(  0-V ,  5-O ) :   2.0616 B(  1-S ,  8-C ) :   1.1080
B(  2-S ,  6-C ) :   1.1146 B(  3-S ,  9-C ) :   1.1137 B(  4-S ,  7-C ) :   1.1076
B(  6-C ,  7-C ) :   1.5254 B(  6-C , 10-S ) :   0.9738 B(  7-C , 11-S ) :   0.9728
B(  8-C ,  9-C ) :   1.5264 B(  8-C , 13-S ) :   0.9731 B(  9-C , 12-S ) :   0.9741
B( 10-S , 16-C ) :   0.9971 B( 11-S , 14-C ) :   0.9938 B( 12-S , 15-C ) :   0.9972
B( 13-S , 17-C ) :   0.9946 B( 14-C , 18-C ) :   0.8849 B( 14-C , 23-H ) :   0.9717
B( 14-C , 24-H ) :   0.9729 B( 15-C , 25-C ) :   0.8843 B( 15-C , 30-H ) :   0.9727
B( 15-C , 31-H ) :   0.9718 B( 16-C , 18-C ) :   0.8838 B( 16-C , 19-H ) :   0.9730
B( 16-C , 20-H ) :   0.9716 B( 17-C , 25-C ) :   0.8850 B( 17-C , 26-H ) :   0.9717
B( 17-C , 27-H ) :   0.9726 B( 18-C , 21-H ) :   0.9561 B( 18-C , 22-H ) :   0.9745
B( 25-C , 28-H ) :   0.9747 B( 25-C , 29-H ) :   0.9560

FINAL SINGLE POINT ENERGY     -4592.675568954600

DIPOLE MOMENT
-------------
                                X             Y             Z
Electronic contribution:     25.88936      -1.53102       4.72860
Nuclear contribution   :    -29.16352       1.71979      -5.32242
                        -----------------------------------------
Total Dipole Moment    :     -3.27416       0.18877      -0.59383
                        -----------------------------------------
Magnitude (a.u.)       :      3.33293
Magnitude (Debye)      :      8.47163

Rotational constants in cm-1:     0.013624     0.002549     0.002460
Rotational constants in MHz :   408.436989    76.410920    73.750203

                             ****ORCA TERMINATED NORMALLY****
TOTAL RUN TIME: 0 days 0 hours 27 minutes 41 seconds 635 msec
