                         Program Version 5.0.4 -  RELEASE  -
|  1> ! nofrozencore ReducedPop printbasis
|  2> ! B3LYP TZVP
|  3>
|  4> %basis
|  5> newgto V "CP(PPP)" end
|  6> end
|  7>
|  8> %pal
|  9> nprocs 4
| 10> end
| 11>
| 12> % sym SymThresh 1e-2 end
| 13> * xyz -2 2
| 14> V 0.1591169684386519 -0.9043695546904037 0.2936731382914925
| 15> S -1.9475137247963152 -0.3153048060959162 1.308505328669623
| 16> S -1.0228178046054812 -1.14841651646844 -1.7904863702646598
| 17> S 1.1439790514435213 0.46760938962872595 2.011448343716893
| 18> S 2.074371156886247 -0.39525720577993734 -1.0799476243070536
| 19> O 0.517028319927262 -2.977629499126135 0.973260567385752
| 20> C 0.25991411453805535 -1.1465571088191098 -3.0089758176094175
| 21> C 1.5511962078972727 -0.8311803486468913 -2.713320114652223
| 22> C -1.4808991906967959 0.43718132495343115 2.8406500795281944
| 23> C -0.19152305593756638 0.7634768057916501 3.1334797057290023
| 24> S -0.2830969070328131 -1.5520417087726137 -4.674673056783184
| 25> S 2.8479231550090445 -0.7813018635375665 -3.957795103728092
| 26> S 0.2795976072993764 1.5738338130071508 4.668025258320035
| 27> S -2.847639918733379 0.7810894256532429 3.957221792854785
| 28> C 2.3678776701707767 0.6201419353789318 -5.057574391497182
| 29> C -0.5043226860894378 3.2397899565841732 4.560348185183874
| 30> C -0.06997750969504679 0.019015122639141006 -5.617834708199761
| 31> C -2.94012025819687 2.622272534289268 4.007894785780997
| 32> C 1.3017923782952088 0.38438600191703215 -6.0731060114244455
| 33> H -0.43365681658223076 0.7176933068978522 -4.848953926728402
| 34> H -0.7702071323724285 0.053879458657642536 -6.464271824281093
| 35> H 1.2711267843027474 1.2022417813851345 -6.818551705905078
| 36> H 1.647597044126383 -0.5088425220165751 -6.6200204397034765
| 37> H 3.2580533533025497 1.05008345428469 -5.5378310869496135
| 38> H 2.029590978141344 1.3234411248261841 -4.281347665108157
| 39> C -1.9595032958872842 3.3534395301920847 4.857195938493726
| 40> H -3.9625651361767544 2.949893237489152 4.245052397768285
| 41> H -2.7629344426820386 2.8142662256822946 2.9377867803677007
| 42> H -2.0627262573138525 2.8756789030060683 5.846640466944995
| 43> H -2.2599549802861603 4.409861622341503 4.9997868442153965
| 44> H -0.29732631697194845 3.4377997183517044 3.496688476999465
| 45> H 0.0603767172182875 3.9712017886832087 5.156312620172601
| 46> *
| 47>
| 48> % eprnmr
| 49> gtensor true
| 50> Nuclei = all H {aiso,adip,aorb,fgrad,rho}
| 51> Nuclei = all V {aiso,adip,aorb,fgrad,rho}
| 52> end
| 53>
| 54>                          ****END OF INPUT****

CARTESIAN COORDINATES (ANGSTROEM)
---------------------------------
  V      0.159328   -0.905502    0.293957
  S     -1.947302   -0.316438    1.308790
  S     -1.022607   -1.149549   -1.790202
  S      1.144190    0.466477    2.011733
  S      2.074582   -0.396390   -1.079663
  O      0.517240   -2.978762    0.973545
  C      0.260125   -1.147690   -3.008692
  C      1.551407   -0.832313   -2.713036
  C     -1.480688    0.436049    2.840934
  C     -0.191312    0.762344    3.133764
  S     -0.282886   -1.553174   -4.674389
  S      2.848134   -0.782435   -3.957511
  S      0.279809    1.572701    4.668310
  S     -2.847429    0.779957    3.957506
  C      2.368089    0.619009   -5.057290
  C     -0.504111    3.238657    4.560632
  C     -0.069766    0.017882   -5.617550
  C     -2.939909    2.621140    4.008179
  C      1.302004    0.383253   -6.072822
  H     -0.433446    0.716561   -4.848670
  H     -0.769996    0.052747   -6.463988
  H      1.271338    1.201109   -6.818267
  H      1.647808   -0.509975   -6.619736
  H      3.258265    1.048951   -5.537547
  H      2.029802    1.322308   -4.281063
  C     -1.959292    3.352307    4.857480
  H     -3.962354    2.948760    4.245337
  H     -2.762723    2.813133    2.938071
  H     -2.062515    2.874546    5.846925
  H     -2.259744    4.408729    5.000071
  H     -0.297115    3.436667    3.496973
  H      0.060588    3.970069    5.156597

 Total Charge           Charge          ....   -2
 Multiplicity           Mult            ....    2
 Number of Electrons    NEL             ....  233
 Basis Dimension        Dim             ....  517

ORBITAL ENERGIES
----------------
                 SPIN UP ORBITALS
  NO   OCC          E(Eh)            E(eV)
   0   1.0000    -196.639820     -5350.8415
   1   1.0000     -88.680682     -2413.1240
   2   1.0000     -88.680610     -2413.1221
   3   1.0000     -88.680580     -2413.1213
   4   1.0000     -88.680567     -2413.1209
   5   1.0000     -88.622191     -2411.5324
   6   1.0000     -88.622116     -2411.5304
   7   1.0000     -88.621829     -2411.5226
   8   1.0000     -88.621806     -2411.5219
   9   1.0000     -22.011115      -598.9529
  10   1.0000     -18.832474      -512.4577
  11   1.0000     -18.516735      -503.8660
  12   1.0000     -18.514126      -503.7950
  13   1.0000     -18.509570      -503.6710
  14   1.0000     -10.017408      -272.5875
  15   1.0000     -10.017355      -272.5861
  16   1.0000     -10.017257      -272.5834
  17   1.0000     -10.017247      -272.5831
  18   1.0000     -10.004247      -272.2294
  19   1.0000     -10.004014      -272.2231
  20   1.0000     -10.000099      -272.1165
  21   1.0000     -10.000093      -272.1164
  22   1.0000      -9.999394      -272.0974
  23   1.0000      -9.999382      -272.0970
  24   1.0000      -7.734468      -210.4656
  25   1.0000      -7.734387      -210.4634
  26   1.0000      -7.734364      -210.4627
  27   1.0000      -7.734356      -210.4625
  28   1.0000      -7.676633      -208.8918
  29   1.0000      -7.676598      -208.8908
  30   1.0000      -7.676276      -208.8821
  31   1.0000      -7.676240      -208.8811
  32   1.0000      -5.699706      -155.0969
  33   1.0000      -5.699622      -155.0946
  34   1.0000      -5.699594      -155.0938
  35   1.0000      -5.699591      -155.0938
  36   1.0000      -5.695783      -154.9901
  37   1.0000      -5.695707      -154.9881
  38   1.0000      -5.695683      -154.9874
  39   1.0000      -5.695677      -154.9873
  40   1.0000      -5.689181      -154.8105
  41   1.0000      -5.689100      -154.8083
  42   1.0000      -5.689074      -154.8076
  43   1.0000      -5.689071      -154.8075
  44   1.0000      -5.641409      -153.5105
  45   1.0000      -5.641373      -153.5096
  46   1.0000      -5.641064      -153.5012
  47   1.0000      -5.641026      -153.5001
  48   1.0000      -5.635069      -153.3380
  49   1.0000      -5.635011      -153.3364
  50   1.0000      -5.634705      -153.3281
  51   1.0000      -5.634667      -153.3271
  52   1.0000      -5.634545      -153.3238
  53   1.0000      -5.634502      -153.3226
  54   1.0000      -5.634185      -153.3140
  55   1.0000      -5.634155      -153.3131
  56   1.0000      -2.418801       -65.8189
  57   1.0000      -1.450583       -39.4724
  58   1.0000      -1.450126       -39.4599
  59   1.0000      -1.449866       -39.4529
  60   1.0000      -0.654712       -17.8156
  61   1.0000      -0.654464       -17.8089
  62   1.0000      -0.603459       -16.4210
  63   1.0000      -0.602828       -16.4038
  64   1.0000      -0.582989       -15.8639
  65   1.0000      -0.582831       -15.8596
  66   1.0000      -0.533651       -14.5214
  67   1.0000      -0.498870       -13.5749
  68   1.0000      -0.496662       -13.5149
  69   1.0000      -0.495770       -13.4906
  70   1.0000      -0.494775       -13.4635
  71   1.0000      -0.430622       -11.7178
  72   1.0000      -0.428222       -11.6525
  73   1.0000      -0.418424       -11.3859
  74   1.0000      -0.412147       -11.2151
  75   1.0000      -0.378838       -10.3087
  76   1.0000      -0.376288       -10.2393
  77   1.0000      -0.297568        -8.0972
  78   1.0000      -0.297306        -8.0901
  79   1.0000      -0.287768        -7.8306
  80   1.0000      -0.287612        -7.8263
  81   1.0000      -0.264948        -7.2096
  82   1.0000      -0.258177        -7.0253
  83   1.0000      -0.254115        -6.9148
  84   1.0000      -0.253980        -6.9111
  85   1.0000      -0.204813        -5.5733
  86   1.0000      -0.204143        -5.5550
  87   1.0000      -0.202208        -5.5024
  88   1.0000      -0.198532        -5.4023
  89   1.0000      -0.192889        -5.2488
  90   1.0000      -0.184945        -5.0326
  91   1.0000      -0.183017        -4.9801
  92   1.0000      -0.159396        -4.3374
  93   1.0000      -0.150987        -4.1086
  94   1.0000      -0.142368        -3.8740
  95   1.0000      -0.136519        -3.7149
  96   1.0000      -0.134735        -3.6663
  97   1.0000      -0.100267        -2.7284
  98   1.0000      -0.091829        -2.4988
  99   1.0000      -0.088564        -2.4099
 100   1.0000      -0.088249        -2.4014
 101   1.0000      -0.062358        -1.6968
 102   1.0000      -0.047256        -1.2859
 103   1.0000      -0.047205        -1.2845
 104   1.0000      -0.041189        -1.1208
 105   1.0000      -0.041021        -1.1162
 106   1.0000      -0.036536        -0.9942
 107   1.0000      -0.018876        -0.5136
 108   1.0000      -0.014336        -0.3901
 109   1.0000      -0.010949        -0.2979
 110   1.0000      -0.005586        -0.1520
 111   1.0000       0.003919         0.1066
 112   1.0000       0.009597         0.2611
 113   1.0000       0.011098         0.3020
 114   1.0000       0.024214         0.6589
 115   1.0000       0.040124         1.0918
 116   1.0000       0.051034         1.3887
 117   0.0000       0.156809         4.2670
 118   0.0000       0.161001         4.3811
 119   0.0000       0.174130         4.7383
 120   0.0000       0.187139         5.0923
 121   0.0000       0.190830         5.1927

                 SPIN DOWN ORBITALS
  NO   OCC          E(Eh)            E(eV)
   0   1.0000    -196.639921     -5350.8443
   1   1.0000     -88.680708     -2413.1248
   2   1.0000     -88.680637     -2413.1228
   3   1.0000     -88.680607     -2413.1220
   4   1.0000     -88.680593     -2413.1216
   5   1.0000     -88.622567     -2411.5427
   6   1.0000     -88.622491     -2411.5406
   7   1.0000     -88.622198     -2411.5326
   8   1.0000     -88.622176     -2411.5320
   9   1.0000     -21.984803      -598.2369
  10   1.0000     -18.858733      -513.1722
  11   1.0000     -18.498023      -503.3568
  12   1.0000     -18.493930      -503.2454
  13   1.0000     -18.482472      -502.9336
  14   1.0000     -10.017357      -272.5862
  15   1.0000     -10.017302      -272.5847
  16   1.0000     -10.017204      -272.5820
  17   1.0000     -10.017196      -272.5818
  18   1.0000     -10.004250      -272.2295
  19   1.0000     -10.004017      -272.2231
  20   1.0000      -9.999694      -272.1055
  21   1.0000      -9.999687      -272.1053
  22   1.0000      -9.998986      -272.0862
  23   1.0000      -9.998972      -272.0859
  24   1.0000      -7.734493      -210.4663
  25   1.0000      -7.734412      -210.4641
  26   1.0000      -7.734388      -210.4634
  27   1.0000      -7.734380      -210.4632
  28   1.0000      -7.676988      -208.9015
  29   1.0000      -7.676953      -208.9005
  30   1.0000      -7.676625      -208.8916
  31   1.0000      -7.676589      -208.8906
  32   1.0000      -5.699744      -155.0979
  33   1.0000      -5.699661      -155.0957
  34   1.0000      -5.699633      -155.0949
  35   1.0000      -5.699630      -155.0948
  36   1.0000      -5.695821      -154.9912
  37   1.0000      -5.695746      -154.9891
  38   1.0000      -5.695721      -154.9885
  39   1.0000      -5.695715      -154.9883
  40   1.0000      -5.689220      -154.8115
  41   1.0000      -5.689139      -154.8093
  42   1.0000      -5.689113      -154.8086
  43   1.0000      -5.689110      -154.8085
  44   1.0000      -5.641747      -153.5197
  45   1.0000      -5.641710      -153.5187
  46   1.0000      -5.641396      -153.5102
  47   1.0000      -5.641358      -153.5092
  48   1.0000      -5.635657      -153.3540
  49   1.0000      -5.635600      -153.3525
  50   1.0000      -5.635273      -153.3436
  51   1.0000      -5.635238      -153.3426
  52   1.0000      -5.635236      -153.3426
  53   1.0000      -5.635192      -153.3414
  54   1.0000      -5.634872      -153.3327
  55   1.0000      -5.634846      -153.3320
  56   1.0000      -2.338785       -63.6416
  57   1.0000      -1.378125       -37.5007
  58   1.0000      -1.371643       -37.3243
  59   1.0000      -1.345928       -36.6246
  60   1.0000      -0.654594       -17.8124
  61   1.0000      -0.654346       -17.8056
  62   1.0000      -0.611563       -16.6415
  63   1.0000      -0.603042       -16.4096
  64   1.0000      -0.602489       -16.3946
  65   1.0000      -0.582903       -15.8616
  66   1.0000      -0.582746       -15.8573
  67   1.0000      -0.499085       -13.5808
  68   1.0000      -0.496858       -13.5202
  69   1.0000      -0.495846       -13.4927
  70   1.0000      -0.494861       -13.4658
  71   1.0000      -0.431252       -11.7350
  72   1.0000      -0.428934       -11.6719
  73   1.0000      -0.418771       -11.3953
  74   1.0000      -0.412664       -11.2292
  75   1.0000      -0.378896       -10.3103
  76   1.0000      -0.376498       -10.2450
  77   1.0000      -0.297532        -8.0963
  78   1.0000      -0.297287        -8.0896
  79   1.0000      -0.287674        -7.8280
  80   1.0000      -0.287538        -7.8243
  81   1.0000      -0.264516        -7.1978
  82   1.0000      -0.257966        -7.0196
  83   1.0000      -0.254083        -6.9140
  84   1.0000      -0.253951        -6.9103
  85   1.0000      -0.204732        -5.5710
  86   1.0000      -0.204078        -5.5532
  87   1.0000      -0.201314        -5.4780
  88   1.0000      -0.198336        -5.3970
  89   1.0000      -0.191288        -5.2052
  90   1.0000      -0.184859        -5.0303
  91   1.0000      -0.182140        -4.9563
  92   1.0000      -0.159002        -4.3267
  93   1.0000      -0.150295        -4.0897
  94   1.0000      -0.141816        -3.8590
  95   1.0000      -0.136008        -3.7010
  96   1.0000      -0.134468        -3.6590
  97   1.0000      -0.099480        -2.7070
  98   1.0000      -0.091404        -2.4872
  99   1.0000      -0.088069        -2.3965
 100   1.0000      -0.087472        -2.3802
 101   1.0000      -0.069927        -1.9028
 102   1.0000      -0.056996        -1.5509
 103   1.0000      -0.046326        -1.2606
 104   1.0000      -0.044977        -1.2239
 105   1.0000      -0.044450        -1.2095
 106   1.0000      -0.038640        -1.0514
 107   1.0000      -0.036137        -0.9833
 108   1.0000      -0.021219        -0.5774
 109   1.0000      -0.019628        -0.5341
 110   1.0000      -0.013323        -0.3625
 111   1.0000      -0.007135        -0.1942
 112   1.0000      -0.006334        -0.1723
 113   1.0000       0.007025         0.1912
 114   1.0000       0.024534         0.6676
 115   1.0000       0.045118         1.2277
 116   0.0000       0.177153         4.8206
 117   0.0000       0.184702         5.0260
 118   0.0000       0.191260         5.2044
 119   0.0000       0.193198         5.2572
 120   0.0000       0.193605         5.2683

MULLIKEN ATOMIC CHARGES AND SPIN POPULATIONS
--------------------------------------------
   0 V :    0.399341    2.182991
   1 S :   -0.239018   -0.060359
   2 S :   -0.237736   -0.060729
   3 S :   -0.238226   -0.061107
   4 S :   -0.239119   -0.059865
   5 O :   -0.547450   -1.034940
   6 C :   -0.120235    0.023714
   7 C :   -0.118951    0.022611
   8 C :   -0.119196    0.022648
   9 C :   -0.119516    0.023851
  10 S :   -0.033756   -0.000870
  11 S :   -0.033282   -0.000796
  12 S :   -0.033508   -0.000923
  13 S :   -0.033519   -0.000854
  14 C :   -0.360821    0.000161
  15 C :   -0.360700    0.000272
  16 C :   -0.359867    0.000253
  17 C :   -0.360038    0.000173
  18 C :   -0.059109    0.001948
  19 H :    0.148097    0.000186
  20 H :    0.108598   -0.000106
  21 H :    0.051351   -0.000006
  22 H :    0.071703   -0.000246
  23 H :    0.108760   -0.000129
  24 H :    0.148454    0.000219
  25 C :   -0.058031    0.001978
  26 H :    0.108564   -0.000119
  27 H :    0.148012    0.000216
  28 H :    0.070834   -0.000254
  29 H :    0.051543   -0.000002
  30 H :    0.148284    0.000182
  31 H :    0.108536   -0.000098
Sum of atomic charges         :   -2.0000000

LOEWDIN ATOMIC CHARGES AND SPIN POPULATIONS
-------------------------------------------
   0 V :   -0.216464    2.096088
   1 S :    0.113242   -0.042975
   2 S :    0.114945   -0.043479
   3 S :    0.114685   -0.043684
   4 S :    0.113094   -0.042666
   5 O :   -0.504385   -1.006477
   6 C :   -0.553249    0.021349
   7 C :   -0.552330    0.020184
   8 C :   -0.552278    0.020077
   9 C :   -0.553016    0.021350
  10 S :    0.343845   -0.001811
  11 S :    0.344055   -0.001807
  12 S :    0.344007   -0.001824
  13 S :    0.344201   -0.001827
  14 C :   -0.300416    0.001836
  15 C :   -0.300989    0.001937
  16 C :   -0.300500    0.001921
  17 C :   -0.300903    0.001842
  18 C :   -0.193405   -0.000073
  19 H :    0.066057    0.000007
  20 H :    0.053037    0.000036
  21 H :    0.050975    0.000017
  22 H :    0.055156   -0.000040
  23 H :    0.053068    0.000022
  24 H :    0.066197    0.000008
  25 C :   -0.193905   -0.000073
  26 H :    0.053270    0.000025
  27 H :    0.066152    0.000010
  28 H :    0.055233   -0.000041
  29 H :    0.051143    0.000019
  30 H :    0.066216    0.000007
  31 H :    0.053262    0.000041

  Mayer bond orders larger than 0.100000
B(  0-V ,  1-S ) :   0.8434 B(  0-V ,  2-S ) :   0.8495 B(  0-V ,  3-S ) :   0.8492
B(  0-V ,  4-S ) :   0.8431 B(  0-V ,  5-O ) :   1.1146 B(  1-S ,  8-C ) :   1.1456
B(  2-S ,  6-C ) :   1.1434 B(  3-S ,  9-C ) :   1.1431 B(  4-S ,  7-C ) :   1.1458
B(  6-C ,  7-C ) :   1.4784 B(  6-C , 10-S ) :   0.9678 B(  7-C , 11-S ) :   0.9682
B(  8-C ,  9-C ) :   1.4783 B(  8-C , 13-S ) :   0.9683 B(  9-C , 12-S ) :   0.9681
B( 10-S , 16-C ) :   0.9895 B( 11-S , 14-C ) :   0.9893 B( 12-S , 15-C ) :   0.9888
B( 13-S , 17-C ) :   0.9887 B( 14-C , 18-C ) :   0.8634 B( 14-C , 23-H ) :   0.9631
B( 14-C , 24-H ) :   0.9914 B( 15-C , 25-C ) :   0.8633 B( 15-C , 30-H ) :   0.9920
B( 15-C , 31-H ) :   0.9627 B( 16-C , 18-C ) :   0.8637 B( 16-C , 19-H ) :   0.9914
B( 16-C , 20-H ) :   0.9631 B( 17-C , 25-C ) :   0.8631 B( 17-C , 26-H ) :   0.9629
B( 17-C , 27-H ) :   0.9919 B( 18-C , 21-H ) :   0.9419 B( 18-C , 22-H ) :   0.9785
B( 25-C , 28-H ) :   0.9786 B( 25-C , 29-H ) :   0.9414

FINAL SINGLE POINT ENERGY     -4592.595991834807

DIPOLE MOMENT
-------------
                                X             Y             Z
Electronic contribution:      4.10699     -23.27647       7.55025
Nuclear contribution   :     -4.75163      26.96480      -8.75540
                        -----------------------------------------
Total Dipole Moment    :     -0.64463       3.68833      -1.20515
                        -----------------------------------------
Magnitude (a.u.)       :      3.93341
Magnitude (Debye)      :      9.99793

Rotational constants in cm-1:     0.012526     0.002538     0.002431
Rotational constants in MHz :   375.510330    76.083556    72.887665

                             ****ORCA TERMINATED NORMALLY****
TOTAL RUN TIME: 0 days 0 hours 50 minutes 56 seconds 830 msec
