                         Program Version 5.0.4 -  RELEASE  -
|  1> ! nofrozencore ReducedPop printbasis
|  2> ! B3LYP TZVP
|  3>
|  4> %basis
|  5> newgto V "CP(PPP)" end
|  6> end
|  7>
|  8> %pal
|  9> nprocs 8
| 10> end
| 11>
| 12> % sym SymThresh 1e-2 end
| 13> * xyz -2 2
| 14> V 0.9561241702347124 0.7760994090876072 -0.11665649730233316
| 15> S -0.7862715086738384 1.286747089208756 -1.8185054853658154
| 16> S -0.7130098601838168 1.6746842377485123 1.4948332294564963
| 17> S 1.2690995127850402 -1.22532603959299 -1.5613597568667936
| 18> S 1.3664537229199114 -0.8176657027409713 1.7510934308875201
| 19> O 1.807347850517526 1.4694441487117524 -0.2239914628182764
| 20> C -0.20629516300422632 1.0174403726349457 3.0551963119321024
| 21> C 0.659501527512223 -0.022476447674360155 3.1612256649790105
| 22> C -0.348194210863802 0.27400552665019035 -3.1977836999334532
| 23> C 0.5086763538195636 -0.7733781521127444 -3.0914646462731077
| 24> S -0.9460308084570288 1.8245282271176555 4.495142557076699
| 25> S 1.1611813639050652 -0.7156543131565387 4.75542195382597
| 26> S 0.9397914580981251 -1.8303641718082353 -4.494941229812416
| 27> S -1.1499128109159706 0.7248816868009366 -4.756475818218879
| 28> C -0.4104601910898935 -1.4900842288444076 5.347643526567718
| 29> C -0.6573761609102542 -2.70532137209334 -4.815354784365519
| 30> C -2.061613666906393 0.5010150915208074 5.145735916175564
| 31> C -2.295173330045368 -0.7019712343888309 -5.021313414425859
| 32> C -1.3676934001899663 -0.5168847790565392 6.104112600211556
| 33> H -2.6345285570239954 -0.026944381656207817 4.370237246579553
| 34> H -2.762659624395245 1.11026468774122 5.733554859902119
| 35> H -2.1908906431030766 -1.1627293513417924 6.469393172992168
| 36> H -0.9028241448071384 -0.04296005670101823 6.976504708684608
| 37> H -0.009581325436038493 -2.2150071749986373 6.070069811570658
| 38> H -0.9578531542683367 -2.0460114821620943 4.57327259289615
| 39> C -1.6459068424645675 -1.9270898861734174 -5.740822634484926
| 40> H -3.0180433114456866 -0.23950990335129707 -5.708763397499025
| 41> H -2.8379538748492497 -1.024241751386718 -4.1206281793024475
| 42> H -1.2226509482951264 -1.6821544345704689 -6.722187106863505
| 43> H -2.4870597146168407 -2.6312102341942456 -5.901366073211055
| 44> H -1.172180265772264 -3.060180668500255 -3.9104932920890425
| 45> H -0.2863573500007044 -3.582870782527349 -5.364203346573881
| 46> *
| 47>
| 48> % eprnmr
| 49> gtensor true
| 50> Nuclei = all H {aiso,adip,aorb,fgrad,rho}
| 51> Nuclei = all V {aiso,adip,aorb,fgrad,rho}
| 52> end
| 53>
| 54>                          ****END OF INPUT****

CARTESIAN COORDINATES (ANGSTROEM)
---------------------------------
  V      0.957037    0.776857   -0.116687
  S     -0.785358    1.287504   -1.818536
  S     -0.712097    1.675442    1.494802
  S      1.270013   -1.224569   -1.561391
  S      1.367367   -0.816908    1.751062
  O      1.808261    1.470202   -0.224022
  C     -0.205382    1.018198    3.055165
  C      0.660415   -0.021719    3.161195
  C     -0.347281    0.274763   -3.197815
  C      0.509590   -0.772621   -3.091496
  S     -0.945118    1.825286    4.495112
  S      1.162095   -0.714897    4.755391
  S      0.940705   -1.829607   -4.494972
  S     -1.149000    0.725639   -4.756507
  C     -0.409547   -1.489327    5.347613
  C     -0.656463   -2.704564   -4.815386
  C     -2.060700    0.501772    5.145705
  C     -2.294260   -0.701214   -5.021344
  C     -1.366780   -0.516127    6.104082
  H     -2.633615   -0.026187    4.370206
  H     -2.761746    1.111022    5.733524
  H     -2.189977   -1.161972    6.469362
  H     -0.901911   -0.042203    6.976474
  H     -0.008668   -2.214250    6.070039
  H     -0.956940   -2.045254    4.573242
  C     -1.644994   -1.926333   -5.740854
  H     -3.017130   -0.238753   -5.708794
  H     -2.837041   -1.023484   -4.120659
  H     -1.221738   -1.681397   -6.722218
  H     -2.486146   -2.630453   -5.901397
  H     -1.171267   -3.059423   -3.910524
  H     -0.285444   -3.582113   -5.364234

 Total Charge           Charge          ....   -2
 Multiplicity           Mult            ....    2
 Number of Electrons    NEL             ....  233
 Basis Dimension        Dim             ....  517

ORBITAL ENERGIES
----------------
                 SPIN UP ORBITALS
  NO   OCC          E(Eh)            E(eV)
   0   1.0000    -196.565968     -5348.8319
   1   1.0000     -88.667923     -2412.7769
   2   1.0000     -88.667920     -2412.7768
   3   1.0000     -88.667915     -2412.7766
   4   1.0000     -88.667857     -2412.7750
   5   1.0000     -88.592835     -2410.7336
   6   1.0000     -88.592780     -2410.7321
   7   1.0000     -88.592753     -2410.7314
   8   1.0000     -88.592749     -2410.7313
   9   1.0000     -21.921274      -596.5082
  10   1.0000     -19.014273      -517.4047
  11   1.0000     -18.427353      -501.4338
  12   1.0000     -18.421369      -501.2709
  13   1.0000     -18.421237      -501.2673
  14   1.0000     -10.011302      -272.4214
  15   1.0000     -10.011268      -272.4205
  16   1.0000     -10.011110      -272.4162
  17   1.0000     -10.011102      -272.4159
  18   1.0000     -10.002162      -272.1727
  19   1.0000     -10.001945      -272.1668
  20   1.0000      -9.978916      -271.5401
  21   1.0000      -9.978905      -271.5398
  22   1.0000      -9.978191      -271.5204
  23   1.0000      -9.978169      -271.5198
  24   1.0000      -7.721501      -210.1127
  25   1.0000      -7.721487      -210.1123
  26   1.0000      -7.721473      -210.1120
  27   1.0000      -7.721426      -210.1107
  28   1.0000      -7.647671      -208.1037
  29   1.0000      -7.647643      -208.1030
  30   1.0000      -7.647534      -208.1000
  31   1.0000      -7.647525      -208.0997
  32   1.0000      -5.686754      -154.7445
  33   1.0000      -5.686737      -154.7440
  34   1.0000      -5.686727      -154.7437
  35   1.0000      -5.686684      -154.7425
  36   1.0000      -5.682868      -154.6387
  37   1.0000      -5.682860      -154.6385
  38   1.0000      -5.682842      -154.6380
  39   1.0000      -5.682794      -154.6367
  40   1.0000      -5.676263      -154.4590
  41   1.0000      -5.676260      -154.4589
  42   1.0000      -5.676249      -154.4586
  43   1.0000      -5.676194      -154.4571
  44   1.0000      -5.612637      -152.7276
  45   1.0000      -5.612611      -152.7269
  46   1.0000      -5.612519      -152.7244
  47   1.0000      -5.612508      -152.7241
  48   1.0000      -5.606237      -152.5535
  49   1.0000      -5.606208      -152.5527
  50   1.0000      -5.606131      -152.5506
  51   1.0000      -5.606127      -152.5505
  52   1.0000      -5.605392      -152.5305
  53   1.0000      -5.605348      -152.5293
  54   1.0000      -5.605243      -152.5264
  55   1.0000      -5.605231      -152.5261
  56   1.0000      -2.470118       -67.2153
  57   1.0000      -1.611294       -43.8455
  58   1.0000      -1.414581       -38.4927
  59   1.0000      -1.413929       -38.4750
  60   1.0000      -0.629990       -17.1429
  61   1.0000      -0.629731       -17.1359
  62   1.0000      -0.625940       -17.0327
  63   1.0000      -0.579830       -15.7780
  64   1.0000      -0.579499       -15.7690
  65   1.0000      -0.564729       -15.3671
  66   1.0000      -0.564652       -15.3650
  67   1.0000      -0.479430       -13.0460
  68   1.0000      -0.478093       -13.0096
  69   1.0000      -0.473560       -12.8862
  70   1.0000      -0.472303       -12.8520
  71   1.0000      -0.409905       -11.1541
  72   1.0000      -0.406497       -11.0613
  73   1.0000      -0.400414       -10.8958
  74   1.0000      -0.396679       -10.7942
  75   1.0000      -0.366438        -9.9713
  76   1.0000      -0.363217        -9.8836
  77   1.0000      -0.333202        -9.0669
  78   1.0000      -0.331968        -9.0333
  79   1.0000      -0.285869        -7.7789
  80   1.0000      -0.285693        -7.7741
  81   1.0000      -0.259963        -7.0739
  82   1.0000      -0.259386        -7.0583
  83   1.0000      -0.253211        -6.8902
  84   1.0000      -0.249540        -6.7903
  85   1.0000      -0.222568        -6.0564
  86   1.0000      -0.218641        -5.9495
  87   1.0000      -0.209073        -5.6892
  88   1.0000      -0.190943        -5.1958
  89   1.0000      -0.190530        -5.1846
  90   1.0000      -0.176341        -4.7985
  91   1.0000      -0.174813        -4.7569
  92   1.0000      -0.170462        -4.6385
  93   1.0000      -0.169228        -4.6049
  94   1.0000      -0.164617        -4.4795
  95   1.0000      -0.143683        -3.9098
  96   1.0000      -0.139514        -3.7964
  97   1.0000      -0.139204        -3.7879
  98   1.0000      -0.138954        -3.7811
  99   1.0000      -0.135817        -3.6958
 100   1.0000      -0.084792        -2.3073
 101   1.0000      -0.073271        -1.9938
 102   1.0000      -0.070268        -1.9121
 103   1.0000      -0.068199        -1.8558
 104   1.0000      -0.033119        -0.9012
 105   1.0000      -0.028029        -0.7627
 106   1.0000      -0.023860        -0.6493
 107   1.0000      -0.021228        -0.5777
 108   1.0000      -0.019934        -0.5424
 109   1.0000       0.004144         0.1128
 110   1.0000       0.004387         0.1194
 111   1.0000       0.007722         0.2101
 112   1.0000       0.027407         0.7458
 113   1.0000       0.028772         0.7829
 114   1.0000       0.050722         1.3802
 115   1.0000       0.052219         1.4210
 116   1.0000       0.070112         1.9078
 117   0.0000       0.199042         5.4162
 118   0.0000       0.201420         5.4809
 119   0.0000       0.202195         5.5020
 120   0.0000       0.203277         5.5314
 121   0.0000       0.227892         6.2013

                 SPIN DOWN ORBITALS
  NO   OCC          E(Eh)            E(eV)
   0   1.0000    -196.566163     -5348.8372
   1   1.0000     -88.667933     -2412.7771
   2   1.0000     -88.667929     -2412.7770
   3   1.0000     -88.667925     -2412.7769
   4   1.0000     -88.667866     -2412.7753
   5   1.0000     -88.592928     -2410.7361
   6   1.0000     -88.592873     -2410.7346
   7   1.0000     -88.592846     -2410.7339
   8   1.0000     -88.592841     -2410.7338
   9   1.0000     -21.909585      -596.1901
  10   1.0000     -19.015528      -517.4388
  11   1.0000     -18.424371      -501.3526
  12   1.0000     -18.408156      -500.9114
  13   1.0000     -18.408124      -500.9105
  14   1.0000     -10.011298      -272.4213
  15   1.0000     -10.011264      -272.4203
  16   1.0000     -10.011107      -272.4161
  17   1.0000     -10.011098      -272.4158
  18   1.0000     -10.002161      -272.1727
  19   1.0000     -10.001944      -272.1667
  20   1.0000      -9.978653      -271.5330
  21   1.0000      -9.978642      -271.5327
  22   1.0000      -9.977931      -271.5133
  23   1.0000      -9.977908      -271.5127
  24   1.0000      -7.721511      -210.1130
  25   1.0000      -7.721497      -210.1126
  26   1.0000      -7.721483      -210.1122
  27   1.0000      -7.721436      -210.1110
  28   1.0000      -7.647754      -208.1060
  29   1.0000      -7.647727      -208.1052
  30   1.0000      -7.647618      -208.1023
  31   1.0000      -7.647609      -208.1020
  32   1.0000      -5.686767      -154.7448
  33   1.0000      -5.686749      -154.7443
  34   1.0000      -5.686739      -154.7440
  35   1.0000      -5.686696      -154.7429
  36   1.0000      -5.682884      -154.6391
  37   1.0000      -5.682876      -154.6389
  38   1.0000      -5.682858      -154.6384
  39   1.0000      -5.682810      -154.6371
  40   1.0000      -5.676273      -154.4592
  41   1.0000      -5.676270      -154.4592
  42   1.0000      -5.676259      -154.4588
  43   1.0000      -5.676204      -154.4574
  44   1.0000      -5.612757      -152.7309
  45   1.0000      -5.612731      -152.7302
  46   1.0000      -5.612639      -152.7277
  47   1.0000      -5.612629      -152.7274
  48   1.0000      -5.606427      -152.5586
  49   1.0000      -5.606401      -152.5579
  50   1.0000      -5.606323      -152.5558
  51   1.0000      -5.606320      -152.5557
  52   1.0000      -5.605490      -152.5332
  53   1.0000      -5.605443      -152.5319
  54   1.0000      -5.605338      -152.5290
  55   1.0000      -5.605328      -152.5287
  56   1.0000      -2.439745       -66.3888
  57   1.0000      -1.597496       -43.4701
  58   1.0000      -1.364021       -37.1169
  59   1.0000      -1.362991       -37.0889
  60   1.0000      -0.629878       -17.1398
  61   1.0000      -0.629656       -17.1338
  62   1.0000      -0.624831       -17.0025
  63   1.0000      -0.579569       -15.7709
  64   1.0000      -0.579244       -15.7620
  65   1.0000      -0.564704       -15.3664
  66   1.0000      -0.564627       -15.3643
  67   1.0000      -0.479347       -13.0437
  68   1.0000      -0.478034       -13.0080
  69   1.0000      -0.473417       -12.8823
  70   1.0000      -0.472183       -12.8487
  71   1.0000      -0.409948       -11.1553
  72   1.0000      -0.406619       -11.0647
  73   1.0000      -0.400289       -10.8924
  74   1.0000      -0.396630       -10.7928
  75   1.0000      -0.366296        -9.9674
  76   1.0000      -0.363089        -9.8802
  77   1.0000      -0.328099        -8.9280
  78   1.0000      -0.326973        -8.8974
  79   1.0000      -0.285829        -7.7778
  80   1.0000      -0.285665        -7.7733
  81   1.0000      -0.259930        -7.0731
  82   1.0000      -0.259363        -7.0576
  83   1.0000      -0.253016        -6.8849
  84   1.0000      -0.249491        -6.7890
  85   1.0000      -0.222370        -6.0510
  86   1.0000      -0.218527        -5.9464
  87   1.0000      -0.195433        -5.3180
  88   1.0000      -0.190564        -5.1855
  89   1.0000      -0.189933        -5.1684
  90   1.0000      -0.176269        -4.7965
  91   1.0000      -0.174778        -4.7560
  92   1.0000      -0.170178        -4.6308
  93   1.0000      -0.169133        -4.6024
  94   1.0000      -0.162564        -4.4236
  95   1.0000      -0.143448        -3.9034
  96   1.0000      -0.139254        -3.7893
  97   1.0000      -0.139016        -3.7828
  98   1.0000      -0.138814        -3.7773
  99   1.0000      -0.135044        -3.6747
 100   1.0000      -0.084321        -2.2945
 101   1.0000      -0.072697        -1.9782
 102   1.0000      -0.070051        -1.9062
 103   1.0000      -0.067805        -1.8451
 104   1.0000      -0.031371        -0.8537
 105   1.0000      -0.027877        -0.7586
 106   1.0000      -0.023419        -0.6373
 107   1.0000      -0.021108        -0.5744
 108   1.0000      -0.017762        -0.4833
 109   1.0000       0.004292         0.1168
 110   1.0000       0.005366         0.1460
 111   1.0000       0.008219         0.2237
 112   1.0000       0.028470         0.7747
 113   1.0000       0.029801         0.8109
 114   1.0000       0.052519         1.4291
 115   1.0000       0.070051         1.9062
 116   0.0000       0.199212         5.4208
 117   0.0000       0.201422         5.4810
 118   0.0000       0.202223         5.5028
 119   0.0000       0.203654         5.5417
 120   0.0000       0.206658         5.6235

MULLIKEN ATOMIC CHARGES AND SPIN POPULATIONS
--------------------------------------------
   0 V :    0.446067    1.046759
   1 S :   -0.320419   -0.011674
   2 S :   -0.320902   -0.011751
   3 S :   -0.320365   -0.011773
   4 S :   -0.321269   -0.011571
   5 O :   -0.120391   -0.037124
   6 C :   -0.126787    0.008556
   7 C :   -0.125418    0.008664
   8 C :   -0.126263    0.008764
   9 C :   -0.126737    0.008539
  10 S :   -0.059623    0.000141
  11 S :   -0.059648    0.000112
  12 S :   -0.059516    0.000115
  13 S :   -0.059861    0.000093
  14 C :   -0.318380    0.000579
  15 C :   -0.316976    0.000585
  16 C :   -0.316791    0.000554
  17 C :   -0.316788    0.000619
  18 C :   -0.095698   -0.000014
  19 H :    0.141884   -0.000141
  20 H :    0.090533    0.000071
  21 H :    0.035823    0.000011
  22 H :    0.080285    0.000056
  23 H :    0.090553    0.000075
  24 H :    0.142321   -0.000144
  25 C :   -0.095625   -0.000024
  26 H :    0.090097    0.000084
  27 H :    0.141784   -0.000151
  28 H :    0.080464    0.000050
  29 H :    0.035647    0.000007
  30 H :    0.141906   -0.000146
  31 H :    0.090094    0.000079
Sum of atomic charges         :   -2.0000000

LOEWDIN ATOMIC CHARGES AND SPIN POPULATIONS
-------------------------------------------
   0 V :   -0.388696    1.007536
   1 S :    0.032102   -0.006211
   2 S :    0.031548   -0.006229
   3 S :    0.031505   -0.006233
   4 S :    0.031742   -0.006166
   5 O :    0.108457   -0.022351
   6 C :   -0.560573    0.010291
   7 C :   -0.560087    0.010315
   8 C :   -0.560098    0.010355
   9 C :   -0.560381    0.010268
  10 S :    0.326357   -0.000619
  11 S :    0.325946   -0.000639
  12 S :    0.326207   -0.000640
  13 S :    0.325955   -0.000651
  14 C :   -0.293246    0.000217
  15 C :   -0.293232    0.000214
  16 C :   -0.293285    0.000204
  17 C :   -0.293417    0.000232
  18 C :   -0.183887   -0.000009
  19 H :    0.066811   -0.000021
  20 H :    0.042844    0.000031
  21 H :    0.043554    0.000027
  22 H :    0.052438    0.000013
  23 H :    0.042848    0.000033
  24 H :    0.066954   -0.000021
  25 C :   -0.183875   -0.000013
  26 H :    0.042757    0.000038
  27 H :    0.066949   -0.000022
  28 H :    0.052524    0.000010
  29 H :    0.043521    0.000027
  30 H :    0.067017   -0.000021
  31 H :    0.042743    0.000036

  Mayer bond orders larger than 0.100000
B(  0-V ,  1-S ) :   0.6741 B(  0-V ,  2-S ) :   0.6749 B(  0-V ,  3-S ) :   0.6749
B(  0-V ,  4-S ) :   0.6735 B(  0-V ,  5-O ) :   2.3651 B(  1-S ,  8-C ) :   1.1678
B(  2-S ,  6-C ) :   1.1661 B(  3-S ,  9-C ) :   1.1670 B(  4-S ,  7-C ) :   1.1670
B(  6-C ,  7-C ) :   1.5276 B(  6-C , 10-S ) :   0.9410 B(  7-C , 11-S ) :   0.9406
B(  8-C ,  9-C ) :   1.5286 B(  8-C , 13-S ) :   0.9401 B(  9-C , 12-S ) :   0.9407
B( 10-S , 16-C ) :   1.0135 B( 11-S , 14-C ) :   1.0137 B( 12-S , 15-C ) :   1.0142
B( 13-S , 17-C ) :   1.0146 B( 14-C , 18-C ) :   0.8889 B( 14-C , 23-H ) :   0.9753
B( 14-C , 24-H ) :   0.9620 B( 15-C , 25-C ) :   0.8896 B( 15-C , 30-H ) :   0.9612
B( 15-C , 31-H ) :   0.9753 B( 16-C , 18-C ) :   0.8891 B( 16-C , 19-H ) :   0.9619
B( 16-C , 20-H ) :   0.9752 B( 17-C , 25-C ) :   0.8895 B( 17-C , 26-H ) :   0.9754
B( 17-C , 27-H ) :   0.9612 B( 18-C , 21-H ) :   0.9594 B( 18-C , 22-H ) :   0.9660
B( 25-C , 28-H ) :   0.9657 B( 25-C , 29-H ) :   0.9598

FINAL SINGLE POINT ENERGY     -4592.201277788667

DIPOLE MOMENT
-------------
                                X             Y             Z
Electronic contribution:     22.70313      18.41062      -2.74704
Nuclear contribution   :    -23.63741     -19.16549       2.85273
                        -----------------------------------------
Total Dipole Moment    :     -0.93427      -0.75487       0.10569
                        -----------------------------------------
Magnitude (a.u.)       :      1.20576
Magnitude (Debye)      :      3.06480

Rotational constants in cm-1:     0.012908     0.002554     0.002431
Rotational constants in MHz :   386.967635    76.572565    72.878815

                             ****ORCA TERMINATED NORMALLY****
TOTAL RUN TIME: 0 days 0 hours 27 minutes 35 seconds 460 msec
