                         Program Version 5.0.4 -  RELEASE  -
|  1> ! nofrozencore ReducedPop printbasis
|  2> ! B3LYP TZVP
|  3>
|  4> %basis
|  5> newgto V "CP(PPP)" end
|  6> end
|  7>
|  8> %pal
|  9> nprocs 4
| 10> end
| 11>
| 12> % sym SymThresh 1e-2 end
| 13> * xyz -2 2
| 14> V 0.6648357996861132 0.5327440005330634 0.7322070375609304
| 15> S 1.3017314265711855 -1.7407391072528389 1.027128084624082
| 16> S 1.6721437429275476 0.3246028809492016 -1.5763982725674786
| 17> S -1.2825813461310016 0.08977121184894654 2.021489963707453
| 18> S -0.7994157273084339 2.105572255492514 -0.6004054198115596
| 19> O 1.5866706450965773 1.1911343669624779 1.8999642611588015
| 20> C 1.1332209247758311 1.7382172288937328 -2.501761484344222
| 21> C 0.08281459272982947 2.4921445491354444 -2.08881641306135
| 22> C 0.1753969710864958 -2.242032655938913 2.2909808970024583
| 23> C -0.8853616859087773 -1.4921961389730323 2.6981738879048813
| 24> S 1.9944630375593773 2.1356838342857993 -4.047969757986308
| 25> S -0.47787938266758484 3.904423761587738 -3.0801498349059755
| 26> S -2.0710373254825485 -1.9814523706519211 3.9597232332932033
| 27> S 0.5957357389727503 -3.867520429154245 2.9370298931516094
| 28> C -1.2567582731790667 3.0748103541088345 -4.544813299092833
| 29> C -2.8647873178708485 -3.48154603353691 3.2419423934835363
| 30> C 0.7506389402868302 1.634203080909682 -5.328838189113586
| 31> C -0.8558440350794058 -4.898696446612409 2.4653873955490164
| 32> C -0.3147935727421667 2.6749825297595318 -5.684267546694694
| 33> H 0.293977613703671 0.7065164762771521 -4.975265784833109
| 34> H 1.339083760204083 1.3980152455117911 -6.221060297689479
| 35> H -0.9313338743612888 2.263771066825572 -6.506576786976667
| 36> H 0.17871129981839387 3.576890529811099 -6.078489667722887
| 37> H -1.9939024539340993 3.792609528793754 -4.918608829985914
| 38> H -1.800471300264829 2.2079821463859957 -4.160980086541795
| 39> C -2.078684523924508 -4.785961727646418 3.376226756871709
| 40> H -0.4775863297740138 -5.925869401509132 2.4857287307026876
| 41> H -1.1120690283694694 -4.657920040644005 1.4296199056047503
| 42> H -1.7665135898102011 -4.917372857562304 4.422671317961512
| 43> H -2.7627290867564116 -5.621576657818394 3.1335871472367685
| 44> H -3.09451202360054 -3.266867086195618 2.1942823397524416
| 45> H -3.813747981843763 -3.5696003749337253 3.7805144134941
| 46> *
| 47>
| 48> % eprnmr
| 49> gtensor true
| 50> Nuclei = all H {aiso,adip,aorb,fgrad,rho}
| 51> Nuclei = all V {aiso,adip,aorb,fgrad,rho}
| 52> end
| 53>
| 54>                          ****END OF INPUT****

CARTESIAN COORDINATES (ANGSTROEM)
---------------------------------
  V      0.665575    0.533430    0.732833
  S      1.302471   -1.740053    1.027754
  S      1.672883    0.325289   -1.575772
  S     -1.281842    0.090457    2.022116
  S     -0.798677    2.106258   -0.599779
  O      1.587410    1.191820    1.900590
  C      1.133960    1.738903   -2.501135
  C      0.083554    2.492830   -2.088190
  C      0.176136   -2.241347    2.291607
  C     -0.884623   -1.491510    2.698800
  S      1.995202    2.136370   -4.047344
  S     -0.477140    3.905110   -3.079524
  S     -2.070298   -1.980767    3.960349
  S      0.596475   -3.866835    2.937656
  C     -1.256019    3.075496   -4.544187
  C     -2.864048   -3.480860    3.242568
  C      0.751378    1.634889   -5.328212
  C     -0.855105   -4.898011    2.466013
  C     -0.314054    2.675668   -5.683642
  H      0.294717    0.707202   -4.974640
  H      1.339823    1.398701   -6.220434
  H     -0.930595    2.264457   -6.505951
  H      0.179450    3.577576   -6.077864
  H     -1.993163    3.793295   -4.917983
  H     -1.799732    2.208668   -4.160354
  C     -2.077945   -4.785276    3.376853
  H     -0.476847   -5.925184    2.486355
  H     -1.111330   -4.657234    1.430246
  H     -1.765774   -4.916687    4.423297
  H     -2.761990   -5.620891    3.134213
  H     -3.093773   -3.266181    2.194908
  H     -3.813009   -3.568915    3.781140

 Total Charge           Charge          ....   -2
 Multiplicity           Mult            ....    2
 Number of Electrons    NEL             ....  233
 Basis Dimension        Dim             ....  517

ORBITAL ENERGIES
----------------
                 SPIN UP ORBITALS
  NO   OCC          E(Eh)            E(eV)
   0   1.0000    -196.643380     -5350.9384
   1   1.0000     -88.678976     -2413.0776
   2   1.0000     -88.678811     -2413.0731
   3   1.0000     -88.674777     -2412.9634
   4   1.0000     -88.674640     -2412.9596
   5   1.0000     -88.615090     -2411.3392
   6   1.0000     -88.615005     -2411.3369
   7   1.0000     -88.609910     -2411.1982
   8   1.0000     -88.609899     -2411.1979
   9   1.0000     -22.018770      -599.1612
  10   1.0000     -18.853737      -513.0363
  11   1.0000     -18.525550      -504.1058
  12   1.0000     -18.519889      -503.9518
  13   1.0000     -18.519787      -503.9490
  14   1.0000     -10.017271      -272.5838
  15   1.0000     -10.017158      -272.5807
  16   1.0000     -10.014447      -272.5069
  17   1.0000     -10.014297      -272.5029
  18   1.0000     -10.006203      -272.2826
  19   1.0000     -10.006058      -272.2787
  20   1.0000      -9.994707      -271.9698
  21   1.0000      -9.994007      -271.9508
  22   1.0000      -9.989926      -271.8397
  23   1.0000      -9.989181      -271.8194
  24   1.0000      -7.732712      -210.4178
  25   1.0000      -7.732603      -210.4148
  26   1.0000      -7.728167      -210.2941
  27   1.0000      -7.728048      -210.2909
  28   1.0000      -7.670089      -208.7137
  29   1.0000      -7.669990      -208.7110
  30   1.0000      -7.663788      -208.5423
  31   1.0000      -7.663768      -208.5417
  32   1.0000      -5.697973      -155.0497
  33   1.0000      -5.697860      -155.0466
  34   1.0000      -5.694004      -154.9417
  35   1.0000      -5.693893      -154.9387
  36   1.0000      -5.693422      -154.9259
  37   1.0000      -5.693300      -154.9226
  38   1.0000      -5.689608      -154.8221
  39   1.0000      -5.689499      -154.8191
  40   1.0000      -5.687483      -154.7643
  41   1.0000      -5.687364      -154.7610
  42   1.0000      -5.682874      -154.6389
  43   1.0000      -5.682748      -154.6354
  44   1.0000      -5.634878      -153.3328
  45   1.0000      -5.634784      -153.3303
  46   1.0000      -5.628683      -153.1642
  47   1.0000      -5.628674      -153.1640
  48   1.0000      -5.628584      -153.1616
  49   1.0000      -5.628471      -153.1585
  50   1.0000      -5.627913      -153.1433
  51   1.0000      -5.627826      -153.1409
  52   1.0000      -5.622346      -152.9918
  53   1.0000      -5.622338      -152.9916
  54   1.0000      -5.621724      -152.9749
  55   1.0000      -5.621694      -152.9741
  56   1.0000      -2.411623       -65.6236
  57   1.0000      -1.449872       -39.4530
  58   1.0000      -1.441885       -39.2357
  59   1.0000      -1.441223       -39.2177
  60   1.0000      -0.645684       -17.5699
  61   1.0000      -0.640807       -17.4373
  62   1.0000      -0.613574       -16.6962
  63   1.0000      -0.595630       -16.2079
  64   1.0000      -0.591080       -16.0841
  65   1.0000      -0.580380       -15.7929
  66   1.0000      -0.570451       -15.5228
  67   1.0000      -0.493625       -13.4322
  68   1.0000      -0.491716       -13.3803
  69   1.0000      -0.489177       -13.3112
  70   1.0000      -0.479888       -13.0584
  71   1.0000      -0.424408       -11.5487
  72   1.0000      -0.418797       -11.3960
  73   1.0000      -0.413204       -11.2438
  74   1.0000      -0.406851       -11.0710
  75   1.0000      -0.380084       -10.3426
  76   1.0000      -0.369769       -10.0619
  77   1.0000      -0.294377        -8.0104
  78   1.0000      -0.290860        -7.9147
  79   1.0000      -0.279649        -7.6096
  80   1.0000      -0.274332        -7.4649
  81   1.0000      -0.262148        -7.1334
  82   1.0000      -0.254277        -6.9192
  83   1.0000      -0.243668        -6.6306
  84   1.0000      -0.236797        -6.4436
  85   1.0000      -0.195934        -5.3316
  86   1.0000      -0.194747        -5.2993
  87   1.0000      -0.191331        -5.2064
  88   1.0000      -0.189165        -5.1474
  89   1.0000      -0.186988        -5.0882
  90   1.0000      -0.182349        -4.9620
  91   1.0000      -0.180886        -4.9222
  92   1.0000      -0.151232        -4.1152
  93   1.0000      -0.150156        -4.0860
  94   1.0000      -0.145881        -3.9696
  95   1.0000      -0.143326        -3.9001
  96   1.0000      -0.139785        -3.8037
  97   1.0000      -0.096649        -2.6300
  98   1.0000      -0.093334        -2.5397
  99   1.0000      -0.090009        -2.4493
 100   1.0000      -0.083505        -2.2723
 101   1.0000      -0.080005        -2.1770
 102   1.0000      -0.072231        -1.9655
 103   1.0000      -0.064448        -1.7537
 104   1.0000      -0.052206        -1.4206
 105   1.0000      -0.044846        -1.2203
 106   1.0000      -0.040394        -1.0992
 107   1.0000      -0.031277        -0.8511
 108   1.0000      -0.025172        -0.6850
 109   1.0000      -0.013085        -0.3561
 110   1.0000      -0.009177        -0.2497
 111   1.0000      -0.000413        -0.0112
 112   1.0000       0.004099         0.1115
 113   1.0000       0.013680         0.3723
 114   1.0000       0.018076         0.4919
 115   1.0000       0.033597         0.9142
 116   1.0000       0.059658         1.6234
 117   0.0000       0.187057         5.0901
 118   0.0000       0.194683         5.2976
 119   0.0000       0.195683         5.3248
 120   0.0000       0.196072         5.3354
 121   0.0000       0.203499         5.5375

                 SPIN DOWN ORBITALS
  NO   OCC          E(Eh)            E(eV)
   0   1.0000    -196.643516     -5350.9421
   1   1.0000     -88.678988     -2413.0780
   2   1.0000     -88.678823     -2413.0735
   3   1.0000     -88.674791     -2412.9637
   4   1.0000     -88.674652     -2412.9600
   5   1.0000     -88.615270     -2411.3441
   6   1.0000     -88.615184     -2411.3418
   7   1.0000     -88.610069     -2411.2025
   8   1.0000     -88.610058     -2411.2023
   9   1.0000     -22.003816      -598.7543
  10   1.0000     -18.857679      -513.1435
  11   1.0000     -18.520161      -503.9592
  12   1.0000     -18.504039      -503.5205
  13   1.0000     -18.503555      -503.5073
  14   1.0000     -10.017264      -272.5836
  15   1.0000     -10.017151      -272.5805
  16   1.0000     -10.014445      -272.5069
  17   1.0000     -10.014295      -272.5028
  18   1.0000     -10.006204      -272.2827
  19   1.0000     -10.006057      -272.2787
  20   1.0000      -9.994366      -271.9605
  21   1.0000      -9.993668      -271.9415
  22   1.0000      -9.989751      -271.8349
  23   1.0000      -9.989007      -271.8147
  24   1.0000      -7.732725      -210.4181
  25   1.0000      -7.732617      -210.4152
  26   1.0000      -7.728180      -210.2945
  27   1.0000      -7.728062      -210.2912
  28   1.0000      -7.670254      -208.7182
  29   1.0000      -7.670156      -208.7156
  30   1.0000      -7.663938      -208.5463
  31   1.0000      -7.663917      -208.5458
  32   1.0000      -5.697989      -155.0502
  33   1.0000      -5.697876      -155.0471
  34   1.0000      -5.694021      -154.9422
  35   1.0000      -5.693911      -154.9392
  36   1.0000      -5.693438      -154.9263
  37   1.0000      -5.693315      -154.9230
  38   1.0000      -5.689628      -154.8226
  39   1.0000      -5.689519      -154.8197
  40   1.0000      -5.687499      -154.7647
  41   1.0000      -5.687380      -154.7615
  42   1.0000      -5.682892      -154.6394
  43   1.0000      -5.682766      -154.6359
  44   1.0000      -5.635077      -153.3383
  45   1.0000      -5.634983      -153.3357
  46   1.0000      -5.629011      -153.1732
  47   1.0000      -5.628900      -153.1702
  48   1.0000      -5.628838      -153.1685
  49   1.0000      -5.628830      -153.1682
  50   1.0000      -5.628071      -153.1476
  51   1.0000      -5.627983      -153.1452
  52   1.0000      -5.622701      -153.0015
  53   1.0000      -5.622693      -153.0012
  54   1.0000      -5.621904      -152.9798
  55   1.0000      -5.621874      -152.9790
  56   1.0000      -2.366530       -64.3966
  57   1.0000      -1.429930       -38.9104
  58   1.0000      -1.379646       -37.5421
  59   1.0000      -1.379394       -37.5352
  60   1.0000      -0.645600       -17.5677
  61   1.0000      -0.640785       -17.4366
  62   1.0000      -0.622383       -16.9359
  63   1.0000      -0.595363       -16.2006
  64   1.0000      -0.590989       -16.0816
  65   1.0000      -0.580342       -15.7919
  66   1.0000      -0.570468       -15.5232
  67   1.0000      -0.493547       -13.4301
  68   1.0000      -0.491691       -13.3796
  69   1.0000      -0.489267       -13.3136
  70   1.0000      -0.480006       -13.0616
  71   1.0000      -0.424648       -11.5552
  72   1.0000      -0.419150       -11.4057
  73   1.0000      -0.413205       -11.2439
  74   1.0000      -0.406996       -11.0749
  75   1.0000      -0.380038       -10.3414
  76   1.0000      -0.369835       -10.0637
  77   1.0000      -0.294341        -8.0094
  78   1.0000      -0.290857        -7.9146
  79   1.0000      -0.279605        -7.6084
  80   1.0000      -0.274328        -7.4648
  81   1.0000      -0.261922        -7.1273
  82   1.0000      -0.254264        -6.9189
  83   1.0000      -0.243560        -6.6276
  84   1.0000      -0.236740        -6.4420
  85   1.0000      -0.195425        -5.3178
  86   1.0000      -0.194704        -5.2982
  87   1.0000      -0.191303        -5.2056
  88   1.0000      -0.189139        -5.1467
  89   1.0000      -0.186894        -5.0857
  90   1.0000      -0.182218        -4.9584
  91   1.0000      -0.178806        -4.8655
  92   1.0000      -0.150549        -4.0966
  93   1.0000      -0.149856        -4.0778
  94   1.0000      -0.145631        -3.9628
  95   1.0000      -0.143129        -3.8947
  96   1.0000      -0.139686        -3.8011
  97   1.0000      -0.096209        -2.6180
  98   1.0000      -0.092482        -2.5166
  99   1.0000      -0.089667        -2.4400
 100   1.0000      -0.083470        -2.2713
 101   1.0000      -0.080246        -2.1836
 102   1.0000      -0.074139        -2.0174
 103   1.0000      -0.066344        -1.8053
 104   1.0000      -0.048316        -1.3147
 105   1.0000      -0.044109        -1.2003
 106   1.0000      -0.040042        -1.0896
 107   1.0000      -0.031020        -0.8441
 108   1.0000      -0.024875        -0.6769
 109   1.0000      -0.012229        -0.3328
 110   1.0000      -0.009105        -0.2478
 111   1.0000      -0.000550        -0.0150
 112   1.0000       0.004265         0.1161
 113   1.0000       0.018773         0.5108
 114   1.0000       0.033895         0.9223
 115   1.0000       0.058454         1.5906
 116   0.0000       0.184507         5.0207
 117   0.0000       0.188924         5.1409
 118   0.0000       0.195837         5.3290
 119   0.0000       0.195883         5.3303
 120   0.0000       0.196522         5.3476

MULLIKEN ATOMIC CHARGES AND SPIN POPULATIONS
--------------------------------------------
   0 V :    0.427358    1.221163
   1 S :   -0.219839   -0.027248
   2 S :   -0.280670   -0.025317
   3 S :   -0.219395   -0.027221
   4 S :   -0.279655   -0.025250
   5 O :   -0.508660   -0.153369
   6 C :   -0.120991    0.006664
   7 C :   -0.120899    0.006550
   8 C :   -0.107749    0.011557
   9 C :   -0.109389    0.011607
  10 S :   -0.049908   -0.000537
  11 S :   -0.049850   -0.000581
  12 S :   -0.040026    0.000394
  13 S :   -0.040382    0.000371
  14 C :   -0.333933    0.000059
  15 C :   -0.341606    0.000467
  16 C :   -0.334295    0.000051
  17 C :   -0.341386    0.000495
  18 C :   -0.091652    0.000232
  19 H :    0.149594   -0.000115
  20 H :    0.101233   -0.000007
  21 H :    0.047438    0.000045
  22 H :    0.074344    0.000050
  23 H :    0.101205   -0.000008
  24 H :    0.148906   -0.000114
  25 C :   -0.078735    0.000015
  26 H :    0.102582    0.000093
  27 H :    0.145315   -0.000067
  28 H :    0.082420   -0.000015
  29 H :    0.041495    0.000006
  30 H :    0.144658   -0.000062
  31 H :    0.102470    0.000091
Sum of atomic charges         :   -2.0000000

LOEWDIN ATOMIC CHARGES AND SPIN POPULATIONS
-------------------------------------------
   0 V :   -0.231380    1.172632
   1 S :    0.130458   -0.017717
   2 S :    0.048015   -0.018129
   3 S :    0.131069   -0.017648
   4 S :    0.048743   -0.018114
   5 O :   -0.375148   -0.137991
   6 C :   -0.554658    0.007102
   7 C :   -0.554101    0.006999
   8 C :   -0.547839    0.013021
   9 C :   -0.547968    0.013094
  10 S :    0.327245   -0.001169
  11 S :    0.327181   -0.001204
  12 S :    0.343772   -0.000772
  13 S :    0.343840   -0.000782
  14 C :   -0.292745    0.000088
  15 C :   -0.295152    0.000268
  16 C :   -0.292628    0.000088
  17 C :   -0.295075    0.000278
  18 C :   -0.183699    0.000006
  19 H :    0.067433   -0.000041
  20 H :    0.046728   -0.000020
  21 H :    0.048532    0.000012
  22 H :    0.052885    0.000023
  23 H :    0.046808   -0.000020
  24 H :    0.067249   -0.000042
  25 C :   -0.186614   -0.000095
  26 H :    0.047630    0.000066
  27 H :    0.065250   -0.000002
  28 H :    0.055271   -0.000003
  29 H :    0.046282    0.000009
  30 H :    0.064941   -0.000001
  31 H :    0.047674    0.000066

  Mayer bond orders larger than 0.100000
B(  0-V ,  1-S ) :   0.8584 B(  0-V ,  2-S ) :   0.7317 B(  0-V ,  3-S ) :   0.8612
B(  0-V ,  4-S ) :   0.7301 B(  0-V ,  5-O ) :   2.1009 B(  1-S ,  8-C ) :   1.1316
B(  2-S ,  6-C ) :   1.1413 B(  3-S ,  9-C ) :   1.1308 B(  4-S ,  7-C ) :   1.1433
B(  6-C ,  7-C ) :   1.5310 B(  6-C , 10-S ) :   0.9464 B(  7-C , 11-S ) :   0.9466
B(  8-C ,  9-C ) :   1.5075 B(  8-C , 13-S ) :   0.9604 B(  9-C , 12-S ) :   0.9611
B( 10-S , 16-C ) :   1.0011 B( 11-S , 14-C ) :   1.0016 B( 12-S , 15-C ) :   1.0099
B( 13-S , 17-C ) :   1.0086 B( 14-C , 18-C ) :   0.8823 B( 14-C , 23-H ) :   0.9689
B( 14-C , 24-H ) :   0.9758 B( 15-C , 25-C ) :   0.8741 B( 15-C , 30-H ) :   0.9739
B( 15-C , 31-H ) :   0.9711 B( 16-C , 18-C ) :   0.8822 B( 16-C , 19-H ) :   0.9758
B( 16-C , 20-H ) :   0.9687 B( 17-C , 25-C ) :   0.8741 B( 17-C , 26-H ) :   0.9711
B( 17-C , 27-H ) :   0.9740 B( 18-C , 21-H ) :   0.9540 B( 18-C , 22-H ) :   0.9753
B( 25-C , 28-H ) :   0.9718 B( 25-C , 29-H ) :   0.9505

FINAL SINGLE POINT ENERGY     -4592.711368983420

DIPOLE MOMENT
-------------
                                X             Y             Z
Electronic contribution:     16.10503      13.79612      16.21212
Nuclear contribution   :    -18.02826     -15.61630     -17.83341
                        -----------------------------------------
Total Dipole Moment    :     -1.92323      -1.82018      -1.62129
                        -----------------------------------------
Magnitude (a.u.)       :      3.10491
Magnitude (Debye)      :      7.89205

Rotational constants in cm-1:     0.012760     0.002545     0.002429
Rotational constants in MHz :   382.530909    76.311405    72.815013

                             ****ORCA TERMINATED NORMALLY****
TOTAL RUN TIME: 0 days 0 hours 43 minutes 4 seconds 278 msec
