                         Program Version 5.0.4 -  RELEASE  -
|  1> ! nofrozencore ReducedPop printbasis
|  2> ! B3LYP TZVP
|  3>
|  4> %basis
|  5> newgto V "CP(PPP)" end
|  6> end
|  7>
|  8> %pal
|  9> nprocs 8
| 10> end
| 11>
| 12> % sym SymThresh 1e-2 end
| 13> * xyz -2 2
| 14> V -0.5254751536983723 -0.9309943177915392 0.3181743002499404
| 15> S -1.9358619136770292 0.18733131809048195 -1.3449383888279764
| 16> S 0.9397916645307507 -1.4959215595837962 -1.5611044645291687
| 17> S -1.2787261836343218 0.8936177737294426 1.7682620953964485
| 18> S 1.584058099416204 -0.8166135078927095 1.5609510946006884
| 19> O -1.2825662047754962 -2.261874612477126 0.7708250462103793
| 20> C 2.475170720804929 -1.9109215492634024 -0.818120397902879
| 21> C 2.75262277066306 -1.617269789568929 0.5245533806505195
| 22> C -2.9452069256726032 1.2738985996038115 -0.4091911327259945
| 23> C -2.6617685254911914 1.5790224873106002 0.9352001875811906
| 24> S 3.6760684486068618 -2.704224927580325 -1.887780877101822
| 25> S 4.333113550631078 -2.00674359179025 1.27717598389889
| 26> S -3.6686956360597174 2.7182121000717645 1.8835825406646869
| 27> S -4.335870621797461 2.000871039965317 -1.2752317352915934
| 28> C 5.505028413831545 -0.8646596422103893 0.42060841963154205
| 29> C -3.3337726275725728 4.347966290252402 1.0829228283407961
| 30> C 4.986676703854103 -1.4181217213333093 -2.0847671430036083
| 31> C -3.863446910937386 3.779716128926725 -1.4198004046293051
| 32> C 6.019607354916191 -1.352724870314938 -0.94551643175374
| 33> H 4.4633491448735345 -0.4481436818503335 -2.0394010302849503
| 34> H 5.560300580203216 -1.7906836577229344 -2.949570552045126
| 35> H 6.910129016828655 -0.7596564559711471 -1.2607875527597816
| 36> H 6.577537233169529 -2.300845283116195 -0.8515394181877189
| 37> H 6.393505826105442 -0.8988335290100999 1.072642374196088
| 38> H 4.921968292528261 0.04241326262313898 0.18801026403123458
| 39> C -4.1640580760744585 4.641544900489965 -0.17991209225809424
| 40> H -4.5735531084764105 4.1519219282396564 -2.1788493887768965
| 41> H -2.761335501435519 3.790201226727381 -1.4951985255005782
| 42> H -5.2465056167298645 4.671231447677452 0.04263182407786725
| 43> H -4.120717501698042 5.728158334182915 -0.4358700505944987
| 44> H -2.2937276127080732 4.2911371206350735 0.7151562789196897
| 45> H -3.723049690537947 5.063131668311839 1.82831213944886
| 46> *
| 47>
| 48> % eprnmr
| 49> gtensor true
| 50> Nuclei = all H {aiso,adip,aorb,fgrad,rho}
| 51> Nuclei = all V {aiso,adip,aorb,fgrad,rho}
| 52> end
| 53>
| 54>                          ****END OF INPUT****

CARTESIAN COORDINATES (ANGSTROEM)
---------------------------------
  V     -0.525964   -0.932025    0.318501
  S     -1.936351    0.186300   -1.344612
  S      0.939302   -1.496953   -1.560778
  S     -1.279215    0.892587    1.768588
  S      1.583569   -0.817644    1.561277
  O     -1.283055   -2.262906    0.771151
  C      2.474681   -1.911953   -0.817794
  C      2.752134   -1.618301    0.524880
  C     -2.945696    1.272868   -0.408865
  C     -2.662258    1.577992    0.935527
  S      3.675579   -2.705256   -1.887455
  S      4.332624   -2.007775    1.277502
  S     -3.669185    2.717181    1.883909
  S     -4.336360    1.999840   -1.274905
  C      5.504539   -0.865691    0.420935
  C     -3.334262    4.346935    1.083249
  C      4.986187   -1.419153   -2.084441
  C     -3.863936    3.778685   -1.419474
  C      6.019118   -1.353756   -0.945190
  H      4.462860   -0.449175   -2.039075
  H      5.559811   -1.791715   -2.949244
  H      6.909640   -0.760687   -1.260461
  H      6.577048   -2.301876   -0.851213
  H      6.393017   -0.899864    1.072969
  H      4.921479    0.041382    0.188337
  C     -4.164547    4.640514   -0.179586
  H     -4.574042    4.150891   -2.178523
  H     -2.761825    3.789170   -1.494872
  H     -5.246995    4.670200    0.042958
  H     -4.121207    5.727127   -0.435544
  H     -2.294217    4.290106    0.715483
  H     -3.723539    5.062101    1.828638

 Total Charge           Charge          ....   -2
 Multiplicity           Mult            ....    2
 Number of Electrons    NEL             ....  233
 Basis Dimension        Dim             ....  517

ORBITAL ENERGIES
----------------
                 SPIN UP ORBITALS
  NO   OCC          E(Eh)            E(eV)
   0   1.0000    -196.642349     -5350.9103
   1   1.0000     -88.676302     -2413.0049
   2   1.0000     -88.676229     -2413.0029
   3   1.0000     -88.676096     -2412.9993
   4   1.0000     -88.676080     -2412.9988
   5   1.0000     -88.614510     -2411.3234
   6   1.0000     -88.614484     -2411.3227
   7   1.0000     -88.614418     -2411.3209
   8   1.0000     -88.614380     -2411.3199
   9   1.0000     -22.018139      -599.1440
  10   1.0000     -18.859551      -513.1945
  11   1.0000     -18.524922      -504.0887
  12   1.0000     -18.519216      -503.9335
  13   1.0000     -18.519161      -503.9320
  14   1.0000     -10.020405      -272.6691
  15   1.0000     -10.020337      -272.6672
  16   1.0000     -10.020114      -272.6612
  17   1.0000     -10.020082      -272.6603
  18   1.0000     -10.003018      -272.1959
  19   1.0000     -10.002977      -272.1948
  20   1.0000      -9.995800      -271.9996
  21   1.0000      -9.995621      -271.9947
  22   1.0000      -9.995295      -271.9858
  23   1.0000      -9.995084      -271.9801
  24   1.0000      -7.730163      -210.3484
  25   1.0000      -7.730094      -210.3466
  26   1.0000      -7.729981      -210.3435
  27   1.0000      -7.729968      -210.3431
  28   1.0000      -7.669132      -208.6877
  29   1.0000      -7.669087      -208.6865
  30   1.0000      -7.669036      -208.6851
  31   1.0000      -7.669012      -208.6844
  32   1.0000      -5.695385      -154.9793
  33   1.0000      -5.695321      -154.9776
  34   1.0000      -5.695203      -154.9744
  35   1.0000      -5.695195      -154.9741
  36   1.0000      -5.691475      -154.8729
  37   1.0000      -5.691405      -154.8710
  38   1.0000      -5.691284      -154.8677
  39   1.0000      -5.691271      -154.8674
  40   1.0000      -5.684939      -154.6950
  41   1.0000      -5.684871      -154.6932
  42   1.0000      -5.684761      -154.6902
  43   1.0000      -5.684751      -154.6899
  44   1.0000      -5.633796      -153.3034
  45   1.0000      -5.633764      -153.3025
  46   1.0000      -5.633732      -153.3016
  47   1.0000      -5.633702      -153.3008
  48   1.0000      -5.627559      -153.1337
  49   1.0000      -5.627517      -153.1325
  50   1.0000      -5.627460      -153.1310
  51   1.0000      -5.627415      -153.1297
  52   1.0000      -5.627274      -153.1259
  53   1.0000      -5.627237      -153.1249
  54   1.0000      -5.627147      -153.1225
  55   1.0000      -5.627140      -153.1223
  56   1.0000      -2.411924       -65.6318
  57   1.0000      -1.453237       -39.5446
  58   1.0000      -1.441788       -39.2331
  59   1.0000      -1.440615       -39.2011
  60   1.0000      -0.643142       -17.5008
  61   1.0000      -0.642978       -17.4963
  62   1.0000      -0.620457       -16.8835
  63   1.0000      -0.591055       -16.0834
  64   1.0000      -0.590347       -16.0642
  65   1.0000      -0.577512       -15.7149
  66   1.0000      -0.577377       -15.7112
  67   1.0000      -0.491854       -13.3840
  68   1.0000      -0.490517       -13.3476
  69   1.0000      -0.489705       -13.3255
  70   1.0000      -0.489249       -13.3131
  71   1.0000      -0.424025       -11.5383
  72   1.0000      -0.421356       -11.4657
  73   1.0000      -0.408924       -11.1274
  74   1.0000      -0.404049       -10.9947
  75   1.0000      -0.371352       -10.1050
  76   1.0000      -0.368186       -10.0188
  77   1.0000      -0.305478        -8.3125
  78   1.0000      -0.304978        -8.2989
  79   1.0000      -0.268411        -7.3038
  80   1.0000      -0.266326        -7.2471
  81   1.0000      -0.261641        -7.1196
  82   1.0000      -0.260146        -7.0789
  83   1.0000      -0.250202        -6.8083
  84   1.0000      -0.244481        -6.6527
  85   1.0000      -0.195587        -5.3222
  86   1.0000      -0.195129        -5.3097
  87   1.0000      -0.188768        -5.1366
  88   1.0000      -0.182703        -4.9716
  89   1.0000      -0.180168        -4.9026
  90   1.0000      -0.180159        -4.9024
  91   1.0000      -0.176438        -4.8011
  92   1.0000      -0.150905        -4.1063
  93   1.0000      -0.146664        -3.9909
  94   1.0000      -0.141361        -3.8466
  95   1.0000      -0.138884        -3.7792
  96   1.0000      -0.137384        -3.7384
  97   1.0000      -0.102163        -2.7800
  98   1.0000      -0.099087        -2.6963
  99   1.0000      -0.089763        -2.4426
 100   1.0000      -0.087606        -2.3839
 101   1.0000      -0.082544        -2.2461
 102   1.0000      -0.082112        -2.2344
 103   1.0000      -0.069361        -1.8874
 104   1.0000      -0.049387        -1.3439
 105   1.0000      -0.039854        -1.0845
 106   1.0000      -0.036239        -0.9861
 107   1.0000      -0.035760        -0.9731
 108   1.0000      -0.032946        -0.8965
 109   1.0000      -0.015527        -0.4225
 110   1.0000      -0.007769        -0.2114
 111   1.0000      -0.003919        -0.1066
 112   1.0000       0.002544         0.0692
 113   1.0000       0.009567         0.2603
 114   1.0000       0.014363         0.3908
 115   1.0000       0.035193         0.9577
 116   1.0000       0.061132         1.6635
 117   0.0000       0.183244         4.9863
 118   0.0000       0.190909         5.1949
 119   0.0000       0.191407         5.2085
 120   0.0000       0.192017         5.2251
 121   0.0000       0.209485         5.7004

                 SPIN DOWN ORBITALS
  NO   OCC          E(Eh)            E(eV)
   0   1.0000    -196.642489     -5350.9142
   1   1.0000     -88.676316     -2413.0052
   2   1.0000     -88.676242     -2413.0032
   3   1.0000     -88.676110     -2412.9996
   4   1.0000     -88.676093     -2412.9992
   5   1.0000     -88.614668     -2411.3277
   6   1.0000     -88.614642     -2411.3270
   7   1.0000     -88.614576     -2411.3252
   8   1.0000     -88.614538     -2411.3242
   9   1.0000     -22.003451      -598.7443
  10   1.0000     -18.863143      -513.2922
  11   1.0000     -18.519778      -503.9488
  12   1.0000     -18.503706      -503.5114
  13   1.0000     -18.503010      -503.4925
  14   1.0000     -10.020401      -272.6690
  15   1.0000     -10.020334      -272.6671
  16   1.0000     -10.020111      -272.6611
  17   1.0000     -10.020079      -272.6602
  18   1.0000     -10.003017      -272.1959
  19   1.0000     -10.002977      -272.1948
  20   1.0000      -9.995553      -271.9928
  21   1.0000      -9.995374      -271.9879
  22   1.0000      -9.995050      -271.9791
  23   1.0000      -9.994838      -271.9734
  24   1.0000      -7.730177      -210.3488
  25   1.0000      -7.730108      -210.3469
  26   1.0000      -7.729995      -210.3439
  27   1.0000      -7.729983      -210.3435
  28   1.0000      -7.669280      -208.6917
  29   1.0000      -7.669234      -208.6905
  30   1.0000      -7.669184      -208.6891
  31   1.0000      -7.669159      -208.6884
  32   1.0000      -5.695402      -154.9798
  33   1.0000      -5.695337      -154.9780
  34   1.0000      -5.695220      -154.9748
  35   1.0000      -5.695213      -154.9746
  36   1.0000      -5.691495      -154.8734
  37   1.0000      -5.691425      -154.8715
  38   1.0000      -5.691304      -154.8683
  39   1.0000      -5.691292      -154.8679
  40   1.0000      -5.684956      -154.6955
  41   1.0000      -5.684888      -154.6937
  42   1.0000      -5.684779      -154.6907
  43   1.0000      -5.684768      -154.6904
  44   1.0000      -5.633965      -153.3080
  45   1.0000      -5.633933      -153.3071
  46   1.0000      -5.633902      -153.3063
  47   1.0000      -5.633871      -153.3054
  48   1.0000      -5.627938      -153.1440
  49   1.0000      -5.627897      -153.1429
  50   1.0000      -5.627838      -153.1413
  51   1.0000      -5.627796      -153.1401
  52   1.0000      -5.627416      -153.1298
  53   1.0000      -5.627378      -153.1287
  54   1.0000      -5.627290      -153.1263
  55   1.0000      -5.627280      -153.1261
  56   1.0000      -2.367689       -64.4281
  57   1.0000      -1.434359       -39.0309
  58   1.0000      -1.380261       -37.5588
  59   1.0000      -1.379662       -37.5425
  60   1.0000      -0.643100       -17.4996
  61   1.0000      -0.642934       -17.4951
  62   1.0000      -0.628159       -17.0931
  63   1.0000      -0.590886       -16.0788
  64   1.0000      -0.590166       -16.0592
  65   1.0000      -0.577505       -15.7147
  66   1.0000      -0.577370       -15.7110
  67   1.0000      -0.491894       -13.3851
  68   1.0000      -0.490525       -13.3479
  69   1.0000      -0.489759       -13.3270
  70   1.0000      -0.489277       -13.3139
  71   1.0000      -0.424251       -11.5445
  72   1.0000      -0.421649       -11.4737
  73   1.0000      -0.408930       -11.1276
  74   1.0000      -0.404141       -10.9972
  75   1.0000      -0.371303       -10.1037
  76   1.0000      -0.368210       -10.0195
  77   1.0000      -0.305448        -8.3117
  78   1.0000      -0.304970        -8.2986
  79   1.0000      -0.268327        -7.3016
  80   1.0000      -0.266320        -7.2469
  81   1.0000      -0.261612        -7.1188
  82   1.0000      -0.260122        -7.0783
  83   1.0000      -0.249977        -6.8022
  84   1.0000      -0.244375        -6.6498
  85   1.0000      -0.195546        -5.3211
  86   1.0000      -0.195091        -5.3087
  87   1.0000      -0.187421        -5.1000
  88   1.0000      -0.182595        -4.9687
  89   1.0000      -0.180111        -4.9011
  90   1.0000      -0.180071        -4.9000
  91   1.0000      -0.175181        -4.7669
  92   1.0000      -0.150247        -4.0884
  93   1.0000      -0.146417        -3.9842
  94   1.0000      -0.141190        -3.8420
  95   1.0000      -0.138611        -3.7718
  96   1.0000      -0.137314        -3.7365
  97   1.0000      -0.101702        -2.7675
  98   1.0000      -0.097570        -2.6550
  99   1.0000      -0.090075        -2.4511
 100   1.0000      -0.087157        -2.3717
 101   1.0000      -0.084431        -2.2975
 102   1.0000      -0.082133        -2.2349
 103   1.0000      -0.070617        -1.9216
 104   1.0000      -0.044697        -1.2163
 105   1.0000      -0.038909        -1.0588
 106   1.0000      -0.036004        -0.9797
 107   1.0000      -0.035348        -0.9619
 108   1.0000      -0.032907        -0.8955
 109   1.0000      -0.014637        -0.3983
 110   1.0000      -0.009087        -0.2473
 111   1.0000      -0.003456        -0.0940
 112   1.0000       0.003855         0.1049
 113   1.0000       0.010442         0.2841
 114   1.0000       0.035505         0.9661
 115   1.0000       0.060370         1.6428
 116   0.0000       0.183686         4.9984
 117   0.0000       0.184305         5.0152
 118   0.0000       0.191535         5.2119
 119   0.0000       0.191632         5.2146
 120   0.0000       0.192295         5.2326

MULLIKEN ATOMIC CHARGES AND SPIN POPULATIONS
--------------------------------------------
   0 V :    0.439484    1.200010
   1 S :   -0.242202   -0.023854
   2 S :   -0.243105   -0.023768
   3 S :   -0.242389   -0.023789
   4 S :   -0.243420   -0.023713
   5 O :   -0.504477   -0.139187
   6 C :   -0.129982    0.008435
   7 C :   -0.128715    0.008440
   8 C :   -0.130375    0.008478
   9 C :   -0.130751    0.008408
  10 S :   -0.036249   -0.000177
  11 S :   -0.036086   -0.000214
  12 S :   -0.035389   -0.000214
  13 S :   -0.035486   -0.000243
  14 C :   -0.330572    0.000323
  15 C :   -0.329093    0.000344
  16 C :   -0.329915    0.000305
  17 C :   -0.328890    0.000365
  18 C :   -0.105170    0.000059
  19 H :    0.151261   -0.000106
  20 H :    0.100309    0.000026
  21 H :    0.046737    0.000091
  22 H :    0.065681    0.000042
  23 H :    0.100204    0.000028
  24 H :    0.151622   -0.000110
  25 C :   -0.106954    0.000054
  26 H :    0.099570    0.000037
  27 H :    0.152006   -0.000119
  28 H :    0.064333    0.000036
  29 H :    0.046447    0.000092
  30 H :    0.151926   -0.000115
  31 H :    0.099642    0.000035
Sum of atomic charges         :   -2.0000000

LOEWDIN ATOMIC CHARGES AND SPIN POPULATIONS
-------------------------------------------
   0 V :   -0.244264    1.154017
   1 S :    0.100680   -0.016092
   2 S :    0.099419   -0.016040
   3 S :    0.100409   -0.016031
   4 S :    0.099204   -0.016022
   5 O :   -0.349830   -0.124558
   6 C :   -0.567766    0.009619
   7 C :   -0.567189    0.009577
   8 C :   -0.568730    0.009555
   9 C :   -0.569108    0.009576
  10 S :    0.340621   -0.001037
  11 S :    0.340502   -0.001058
  12 S :    0.341036   -0.001058
  13 S :    0.340966   -0.001071
  14 C :   -0.293077    0.000175
  15 C :   -0.293668    0.000181
  16 C :   -0.293195    0.000166
  17 C :   -0.293763    0.000192
  18 C :   -0.201633   -0.000042
  19 H :    0.072968   -0.000023
  20 H :    0.053176    0.000002
  21 H :    0.042709    0.000025
  22 H :    0.045231    0.000014
  23 H :    0.053146    0.000003
  24 H :    0.073107   -0.000024
  25 C :   -0.203247   -0.000046
  26 H :    0.053766    0.000007
  27 H :    0.073776   -0.000026
  28 H :    0.044739    0.000012
  29 H :    0.042582    0.000027
  30 H :    0.073743   -0.000024
  31 H :    0.053688    0.000006

  Mayer bond orders larger than 0.100000
B(  0-V ,  1-S ) :   0.7886 B(  0-V ,  2-S ) :   0.7911 B(  0-V ,  3-S ) :   0.7907
B(  0-V ,  4-S ) :   0.7885 B(  0-V ,  5-O ) :   2.1090 B(  1-S ,  8-C ) :   1.1497
B(  2-S ,  6-C ) :   1.1473 B(  3-S ,  9-C ) :   1.1485 B(  4-S ,  7-C ) :   1.1485
B(  6-C ,  7-C ) :   1.4676 B(  6-C , 10-S ) :   0.9716 B(  7-C , 11-S ) :   0.9715
B(  8-C ,  9-C ) :   1.4619 B(  8-C , 13-S ) :   0.9732 B(  9-C , 12-S ) :   0.9735
B( 10-S , 16-C ) :   1.0113 B( 11-S , 14-C ) :   1.0114 B( 12-S , 15-C ) :   1.0115
B( 13-S , 17-C ) :   1.0119 B( 14-C , 18-C ) :   0.8800 B( 14-C , 23-H ) :   0.9666
B( 14-C , 24-H ) :   0.9743 B( 15-C , 25-C ) :   0.8817 B( 15-C , 30-H ) :   0.9737
B( 15-C , 31-H ) :   0.9659 B( 16-C , 18-C ) :   0.8802 B( 16-C , 19-H ) :   0.9742
B( 16-C , 20-H ) :   0.9666 B( 17-C , 25-C ) :   0.8815 B( 17-C , 26-H ) :   0.9659
B( 17-C , 27-H ) :   0.9735 B( 18-C , 21-H ) :   0.9495 B( 18-C , 22-H ) :   0.9600
B( 25-C , 28-H ) :   0.9588 B( 25-C , 29-H ) :   0.9487

FINAL SINGLE POINT ENERGY     -4592.680584948966

DIPOLE MOMENT
-------------
                                X             Y             Z
Electronic contribution:    -12.42351     -22.11194       7.55767
Nuclear contribution   :     13.78666      24.50819      -8.37895
                        -----------------------------------------
Total Dipole Moment    :      1.36315       2.39625      -0.82128
                        -----------------------------------------
Magnitude (a.u.)       :      2.87658
Magnitude (Debye)      :      7.31168

Rotational constants in cm-1:     0.012772     0.002548     0.002430
Rotational constants in MHz :   382.889676    76.397135    72.860822

                             ****ORCA TERMINATED NORMALLY****
TOTAL RUN TIME: 0 days 0 hours 27 minutes 47 seconds 441 msec
