                         Program Version 5.0.4 -  RELEASE  -
|  1> ! nofrozencore ReducedPop printbasis
|  2> ! B3LYP TZVP
|  3>
|  4> %basis
|  5> newgto V "CP(PPP)" end
|  6> end
|  7>
|  8> %pal
|  9> nprocs 8
| 10> end
| 11>
| 12> % sym SymThresh 1e-2 end
| 13> * xyz -2 2
| 14> V 0.1632465862721631 -0.9252480823757848 0.6011527219462773
| 15> S 2.3559809461792938 0.08811547833776781 0.18638913604990304
| 16> S -0.20506030077536921 0.9301759278895534 2.1559288412641835
| 17> S 0.30802180505760995 -1.5292361993759365 -1.7678302144596052
| 18> S -2.2490737054513694 -0.7133803134395486 0.21948981411022148
| 19> O 0.40276654291134417 -2.2492954165360954 1.460708492626424
| 20> C -1.9545737228959295 0.966354050720963 2.4001782567136414
| 21> C -2.793151045405895 0.2939269442844205 1.567614201585511
| 22> C 2.8559993416439933 -0.6186320050913966 -1.354810895022135
| 23> C 2.0149144491185513 -1.307411257429396 -2.171187318512655
| 24> S -2.523554731311483 2.0004559444654966 3.7281941803314234
| 25> S -4.613155925479689 0.3351192149930533 1.7788313064029093
| 26> S 2.5207700915913085 -1.9815379644179982 -3.7470473943160805
| 27> S 4.610715123681527 -0.3517560349651367 -1.7676288709177759
| 28> C -4.956586411174476 2.098117880601521 1.3115099505938628
| 29> C 2.8966809955004327 -0.5076743757049287 -4.786630038591685
| 30> C -3.4143862405949594 3.399969122987299 2.9299322505073047
| 31> C 4.468470235029823 0.8047926363302296 -3.2062728037567485
| 32> C -4.822677327096048 3.1278830945038076 2.4603307541141746
| 33> H -2.8406160192900565 3.478326541633567 1.9760249106441419
| 34> H -3.244938523170188 4.346439539003628 3.5005585961831893
| 35> H -5.25915287763973 4.074709957084316 2.1027538971483755
| 36> H -5.494454096609044 2.7472757503650564 3.250102769339029
| 37> H -6.072135083548597 2.0210669463217172 1.2254191371237422
| 38> H -4.548269697505765 2.3738147515533066 0.3109343529890749
| 39> C 4.251669285980945 0.1399469042924765 -4.579186446402815
| 40> H 5.5025523505950495 1.1930568405906354 -3.255611939583984
| 41> H 3.7988759316527396 1.647401803645291 -2.972812740434179
| 42> H 5.077051473871069 -0.5744003198740124 -4.706637080466929
| 43> H 4.382357728579443 0.9186721032842405 -5.348032664029862
| 44> H 2.1499476662167565 0.22730726370455975 -4.446201826990681
| 45> H 2.66656114732003 -0.752844782149977 -5.837665447665517
| 46> *
| 47>
| 48> % eprnmr
| 49> gtensor true
| 50> Nuclei = all H {aiso,adip,aorb,fgrad,rho}
| 51> Nuclei = all V {aiso,adip,aorb,fgrad,rho}
| 52> end
| 53>
| 54>                          ****END OF INPUT****

CARTESIAN COORDINATES (ANGSTROEM)
---------------------------------
  V      0.163362   -0.926207    0.601843
  S      2.356096    0.087157    0.187079
  S     -0.204945    0.929217    2.156619
  S      0.308137   -1.530195   -1.767140
  S     -2.248959   -0.714339    0.220180
  O      0.402882   -2.250254    1.461399
  C     -1.954459    0.965396    2.400869
  C     -2.793036    0.292968    1.568305
  C      2.856114   -0.619591   -1.354121
  C      2.015030   -1.308370   -2.170497
  S     -2.523440    1.999497    3.728884
  S     -4.613041    0.334161    1.779522
  S      2.520885   -1.982497   -3.746357
  S      4.610830   -0.352715   -1.766939
  C     -4.956471    2.097159    1.312200
  C      2.896796   -0.508633   -4.785940
  C     -3.414271    3.399011    2.930623
  C      4.468585    0.803834   -3.205582
  C     -4.822562    3.126925    2.461021
  H     -2.840501    3.477368    1.976715
  H     -3.244823    4.345481    3.501249
  H     -5.259038    4.073751    2.103444
  H     -5.494339    2.746317    3.250793
  H     -6.072020    2.020108    1.226109
  H     -4.548155    2.372856    0.311625
  C      4.251784    0.138988   -4.578496
  H      5.502667    1.192098   -3.254922
  H      3.798991    1.646443   -2.972122
  H      5.077167   -0.575359   -4.705947
  H      4.382473    0.917714   -5.347342
  H      2.150063    0.226349   -4.445512
  H      2.666676   -0.753803   -5.836975

 Total Charge           Charge          ....   -2
 Multiplicity           Mult            ....    2
 Number of Electrons    NEL             ....  233
 Basis Dimension        Dim             ....  517

ORBITAL ENERGIES
----------------
                 SPIN UP ORBITALS
  NO   OCC          E(Eh)            E(eV)
   0   1.0000    -196.640302     -5350.8547
   1   1.0000     -88.680076     -2413.1076
   2   1.0000     -88.678523     -2413.0653
   3   1.0000     -88.675049     -2412.9708
   4   1.0000     -88.674498     -2412.9558
   5   1.0000     -88.613584     -2411.2982
   6   1.0000     -88.612958     -2411.2812
   7   1.0000     -88.611367     -2411.2379
   8   1.0000     -88.610943     -2411.2263
   9   1.0000     -22.016110      -599.0888
  10   1.0000     -18.857383      -513.1355
  11   1.0000     -18.522938      -504.0348
  12   1.0000     -18.517158      -503.8775
  13   1.0000     -18.517121      -503.8765
  14   1.0000     -10.023029      -272.7405
  15   1.0000     -10.019097      -272.6335
  16   1.0000     -10.017287      -272.5842
  17   1.0000     -10.015387      -272.5325
  18   1.0000     -10.007711      -272.3237
  19   1.0000     -10.005847      -272.2729
  20   1.0000      -9.993598      -271.9396
  21   1.0000      -9.992802      -271.9180
  22   1.0000      -9.990381      -271.8521
  23   1.0000      -9.989890      -271.8387
  24   1.0000      -7.733035      -210.4266
  25   1.0000      -7.731775      -210.3923
  26   1.0000      -7.729048      -210.3181
  27   1.0000      -7.728670      -210.3078
  28   1.0000      -7.667914      -208.6546
  29   1.0000      -7.667314      -208.6382
  30   1.0000      -7.665851      -208.5984
  31   1.0000      -7.665522      -208.5895
  32   1.0000      -5.698313      -155.0590
  33   1.0000      -5.697037      -155.0243
  34   1.0000      -5.694546      -154.9565
  35   1.0000      -5.694280      -154.9492
  36   1.0000      -5.693898      -154.9388
  37   1.0000      -5.693226      -154.9206
  38   1.0000      -5.690298      -154.8409
  39   1.0000      -5.689859      -154.8289
  40   1.0000      -5.687744      -154.7714
  41   1.0000      -5.686498      -154.7375
  42   1.0000      -5.683823      -154.6647
  43   1.0000      -5.683456      -154.6547
  44   1.0000      -5.632753      -153.2750
  45   1.0000      -5.632156      -153.2587
  46   1.0000      -5.630703      -153.2192
  47   1.0000      -5.630366      -153.2100
  48   1.0000      -5.626344      -153.1006
  49   1.0000      -5.625927      -153.0893
  50   1.0000      -5.625764      -153.0848
  51   1.0000      -5.625315      -153.0726
  52   1.0000      -5.624295      -153.0449
  53   1.0000      -5.623947      -153.0354
  54   1.0000      -5.623823      -153.0320
  55   1.0000      -5.623477      -153.0226
  56   1.0000      -2.409798       -65.5739
  57   1.0000      -1.451160       -39.4881
  58   1.0000      -1.439573       -39.1728
  59   1.0000      -1.438499       -39.1435
  60   1.0000      -0.644044       -17.5253
  61   1.0000      -0.643902       -17.5215
  62   1.0000      -0.618426       -16.8282
  63   1.0000      -0.594223       -16.1696
  64   1.0000      -0.593681       -16.1549
  65   1.0000      -0.575469       -15.6593
  66   1.0000      -0.574687       -15.6380
  67   1.0000      -0.491848       -13.3839
  68   1.0000      -0.490013       -13.3339
  69   1.0000      -0.486752       -13.2452
  70   1.0000      -0.485372       -13.2077
  71   1.0000      -0.422469       -11.4960
  72   1.0000      -0.419605       -11.4180
  73   1.0000      -0.411407       -11.1950
  74   1.0000      -0.405826       -11.0431
  75   1.0000      -0.374866       -10.2006
  76   1.0000      -0.371795       -10.1171
  77   1.0000      -0.292057        -7.9473
  78   1.0000      -0.291055        -7.9200
  79   1.0000      -0.279957        -7.6180
  80   1.0000      -0.278737        -7.5848
  81   1.0000      -0.259996        -7.0748
  82   1.0000      -0.254484        -6.9249
  83   1.0000      -0.239694        -6.5224
  84   1.0000      -0.236842        -6.4448
  85   1.0000      -0.196485        -5.3466
  86   1.0000      -0.194997        -5.3061
  87   1.0000      -0.190014        -5.1705
  88   1.0000      -0.186804        -5.0832
  89   1.0000      -0.183416        -4.9910
  90   1.0000      -0.182319        -4.9611
  91   1.0000      -0.178242        -4.8502
  92   1.0000      -0.154149        -4.1946
  93   1.0000      -0.150677        -4.1001
  94   1.0000      -0.149754        -4.0750
  95   1.0000      -0.137848        -3.7510
  96   1.0000      -0.133313        -3.6276
  97   1.0000      -0.097883        -2.6635
  98   1.0000      -0.096950        -2.6381
  99   1.0000      -0.088343        -2.4039
 100   1.0000      -0.085286        -2.3208
 101   1.0000      -0.080389        -2.1875
 102   1.0000      -0.079259        -2.1568
 103   1.0000      -0.069795        -1.8992
 104   1.0000      -0.050038        -1.3616
 105   1.0000      -0.038784        -1.0554
 106   1.0000      -0.038090        -1.0365
 107   1.0000      -0.035932        -0.9778
 108   1.0000      -0.032083        -0.8730
 109   1.0000      -0.013357        -0.3635
 110   1.0000      -0.004400        -0.1197
 111   1.0000      -0.003587        -0.0976
 112   1.0000       0.005894         0.1604
 113   1.0000       0.010412         0.2833
 114   1.0000       0.016158         0.4397
 115   1.0000       0.033416         0.9093
 116   1.0000       0.059562         1.6208
 117   0.0000       0.186737         5.0814
 118   0.0000       0.192888         5.2488
 119   0.0000       0.195840         5.3291
 120   0.0000       0.196701         5.3525
 121   0.0000       0.211171         5.7462

                 SPIN DOWN ORBITALS
  NO   OCC          E(Eh)            E(eV)
   0   1.0000    -196.640443     -5350.8585
   1   1.0000     -88.680090     -2413.1079
   2   1.0000     -88.678537     -2413.0657
   3   1.0000     -88.675062     -2412.9711
   4   1.0000     -88.674511     -2412.9561
   5   1.0000     -88.613743     -2411.3025
   6   1.0000     -88.613118     -2411.2855
   7   1.0000     -88.611526     -2411.2422
   8   1.0000     -88.611102     -2411.2307
   9   1.0000     -22.001442      -598.6897
  10   1.0000     -18.860956      -513.2327
  11   1.0000     -18.517810      -503.8952
  12   1.0000     -18.501665      -503.4559
  13   1.0000     -18.500989      -503.4375
  14   1.0000     -10.023025      -272.7404
  15   1.0000     -10.019093      -272.6334
  16   1.0000     -10.017284      -272.5842
  17   1.0000     -10.015384      -272.5324
  18   1.0000     -10.007711      -272.3237
  19   1.0000     -10.005846      -272.2729
  20   1.0000      -9.993342      -271.9327
  21   1.0000      -9.992546      -271.9110
  22   1.0000      -9.990129      -271.8452
  23   1.0000      -9.989639      -271.8319
  24   1.0000      -7.733050      -210.4270
  25   1.0000      -7.731789      -210.3927
  26   1.0000      -7.729062      -210.3185
  27   1.0000      -7.728683      -210.3082
  28   1.0000      -7.668062      -208.6586
  29   1.0000      -7.667463      -208.6423
  30   1.0000      -7.665999      -208.6024
  31   1.0000      -7.665670      -208.5935
  32   1.0000      -5.698330      -155.0594
  33   1.0000      -5.697055      -155.0247
  34   1.0000      -5.694567      -154.9570
  35   1.0000      -5.694296      -154.9497
  36   1.0000      -5.693913      -154.9393
  37   1.0000      -5.693247      -154.9211
  38   1.0000      -5.690318      -154.8414
  39   1.0000      -5.689879      -154.8295
  40   1.0000      -5.687761      -154.7718
  41   1.0000      -5.686515      -154.7379
  42   1.0000      -5.683840      -154.6651
  43   1.0000      -5.683472      -154.6551
  44   1.0000      -5.632924      -153.2796
  45   1.0000      -5.632327      -153.2634
  46   1.0000      -5.630875      -153.2239
  47   1.0000      -5.630538      -153.2147
  48   1.0000      -5.626730      -153.1111
  49   1.0000      -5.626153      -153.0954
  50   1.0000      -5.626066      -153.0930
  51   1.0000      -5.625453      -153.0764
  52   1.0000      -5.624687      -153.0555
  53   1.0000      -5.624337      -153.0460
  54   1.0000      -5.623956      -153.0356
  55   1.0000      -5.623610      -153.0262
  56   1.0000      -2.365617       -64.3717
  57   1.0000      -1.432341       -38.9760
  58   1.0000      -1.378165       -37.5018
  59   1.0000      -1.377520       -37.4842
  60   1.0000      -0.643994       -17.5240
  61   1.0000      -0.643851       -17.5201
  62   1.0000      -0.626080       -17.0365
  63   1.0000      -0.594038       -16.1646
  64   1.0000      -0.593477       -16.1493
  65   1.0000      -0.575463       -15.6591
  66   1.0000      -0.574679       -15.6378
  67   1.0000      -0.491872       -13.3845
  68   1.0000      -0.490046       -13.3348
  69   1.0000      -0.486763       -13.2455
  70   1.0000      -0.485399       -13.2084
  71   1.0000      -0.422708       -11.5025
  72   1.0000      -0.419910       -11.4263
  73   1.0000      -0.411416       -11.1952
  74   1.0000      -0.405924       -11.0458
  75   1.0000      -0.374825       -10.1995
  76   1.0000      -0.371813       -10.1175
  77   1.0000      -0.292038        -7.9468
  78   1.0000      -0.291037        -7.9195
  79   1.0000      -0.279940        -7.6176
  80   1.0000      -0.278720        -7.5844
  81   1.0000      -0.259775        -7.0688
  82   1.0000      -0.254432        -6.9235
  83   1.0000      -0.239615        -6.5203
  84   1.0000      -0.236789        -6.4433
  85   1.0000      -0.196237        -5.3399
  86   1.0000      -0.194930        -5.3043
  87   1.0000      -0.189611        -5.1596
  88   1.0000      -0.186597        -5.0776
  89   1.0000      -0.183288        -4.9875
  90   1.0000      -0.181854        -4.9485
  91   1.0000      -0.176918        -4.8142
  92   1.0000      -0.153908        -4.1881
  93   1.0000      -0.150067        -4.0835
  94   1.0000      -0.149485        -4.0677
  95   1.0000      -0.137661        -3.7459
  96   1.0000      -0.133037        -3.6201
  97   1.0000      -0.096917        -2.6372
  98   1.0000      -0.095966        -2.6114
  99   1.0000      -0.088463        -2.4072
 100   1.0000      -0.085203        -2.3185
 101   1.0000      -0.082256        -2.2383
 102   1.0000      -0.078850        -2.1456
 103   1.0000      -0.071041        -1.9331
 104   1.0000      -0.046012        -1.2521
 105   1.0000      -0.038863        -1.0575
 106   1.0000      -0.037363        -1.0167
 107   1.0000      -0.034894        -0.9495
 108   1.0000      -0.032082        -0.8730
 109   1.0000      -0.012469        -0.3393
 110   1.0000      -0.005719        -0.1556
 111   1.0000      -0.002531        -0.0689
 112   1.0000       0.006784         0.1846
 113   1.0000       0.011310         0.3078
 114   1.0000       0.033676         0.9164
 115   1.0000       0.058774         1.5993
 116   0.0000       0.184819         5.0292
 117   0.0000       0.187917         5.1135
 118   0.0000       0.193494         5.2652
 119   0.0000       0.196228         5.3396
 120   0.0000       0.196951         5.3593

MULLIKEN ATOMIC CHARGES AND SPIN POPULATIONS
--------------------------------------------
   0 V :    0.447071    1.199139
   1 S :   -0.251405   -0.024194
   2 S :   -0.256551   -0.023968
   3 S :   -0.256582   -0.024163
   4 S :   -0.251203   -0.023967
   5 O :   -0.506401   -0.138720
   6 C :   -0.114221    0.008570
   7 C :   -0.116342    0.009089
   8 C :   -0.117955    0.009072
   9 C :   -0.112966    0.008693
  10 S :   -0.034672    0.000018
  11 S :   -0.042642   -0.000356
  12 S :   -0.040267   -0.000079
  13 S :   -0.044518   -0.000334
  14 C :   -0.330573    0.000250
  15 C :   -0.351127    0.000277
  16 C :   -0.362387    0.000210
  17 C :   -0.331530    0.000299
  18 C :   -0.067752    0.000211
  19 H :    0.152116   -0.000100
  20 H :    0.108933    0.000019
  21 H :    0.045840    0.000047
  22 H :    0.074715    0.000003
  23 H :    0.079326    0.000026
  24 H :    0.144520   -0.000100
  25 C :   -0.077313    0.000169
  26 H :    0.089472    0.000030
  27 H :    0.145172   -0.000106
  28 H :    0.076791    0.000004
  29 H :    0.044949    0.000038
  30 H :    0.150082   -0.000106
  31 H :    0.107421    0.000028
Sum of atomic charges         :   -2.0000000

LOEWDIN ATOMIC CHARGES AND SPIN POPULATIONS
-------------------------------------------
   0 V :   -0.242956    1.153139
   1 S :    0.090143   -0.016413
   2 S :    0.087164   -0.016186
   3 S :    0.086463   -0.016315
   4 S :    0.090290   -0.016269
   5 O :   -0.350876   -0.124168
   6 C :   -0.570109    0.009814
   7 C :   -0.538428    0.010104
   8 C :   -0.543346    0.010049
   9 C :   -0.563191    0.009861
  10 S :    0.348488   -0.000925
  11 S :    0.328105   -0.001146
  12 S :    0.343535   -0.000973
  13 S :    0.331105   -0.001129
  14 C :   -0.295636    0.000166
  15 C :   -0.302806    0.000167
  16 C :   -0.311391    0.000154
  17 C :   -0.292672    0.000179
  18 C :   -0.186828   -0.000034
  19 H :    0.075476   -0.000026
  20 H :    0.054172    0.000001
  21 H :    0.048028    0.000018
  22 H :    0.052867    0.000012
  23 H :    0.047459    0.000005
  24 H :    0.066718   -0.000035
  25 C :   -0.185611   -0.000038
  26 H :    0.046742    0.000009
  27 H :    0.065201   -0.000032
  28 H :    0.053203    0.000010
  29 H :    0.047264    0.000018
  30 H :    0.070748   -0.000025
  31 H :    0.050678    0.000008

  Mayer bond orders larger than 0.100000
B(  0-V ,  1-S ) :   0.7864 B(  0-V ,  2-S ) :   0.7938 B(  0-V ,  3-S ) :   0.7927
B(  0-V ,  4-S ) :   0.7841 B(  0-V ,  5-O ) :   2.1082 B(  1-S ,  8-C ) :   1.1430
B(  2-S ,  6-C ) :   1.1275 B(  3-S ,  9-C ) :   1.1310 B(  4-S ,  7-C ) :   1.1447
B(  6-C ,  7-C ) :   1.5137 B(  6-C , 10-S ) :   0.9715 B(  7-C , 11-S ) :   0.9374
B(  8-C ,  9-C ) :   1.5163 B(  8-C , 13-S ) :   0.9445 B(  9-C , 12-S ) :   0.9632
B( 10-S , 16-C ) :   0.9903 B( 11-S , 14-C ) :   1.0452 B( 12-S , 15-C ) :   0.9917
B( 13-S , 17-C ) :   1.0299 B( 14-C , 18-C ) :   0.8723 B( 14-C , 23-H ) :   0.9839
B( 14-C , 24-H ) :   0.9511 B( 15-C , 25-C ) :   0.8780 B( 15-C , 30-H ) :   0.9862
B( 15-C , 31-H ) :   0.9599 B( 16-C , 18-C ) :   0.8757 B( 16-C , 19-H ) :   0.9914
B( 16-C , 20-H ) :   0.9537 B( 17-C , 25-C ) :   0.8749 B( 17-C , 26-H ) :   0.9797
B( 17-C , 27-H ) :   0.9604 B( 18-C , 21-H ) :   0.9535 B( 18-C , 22-H ) :   0.9706
B( 25-C , 28-H ) :   0.9726 B( 25-C , 29-H ) :   0.9531

FINAL SINGLE POINT ENERGY     -4592.704336562338

DIPOLE MOMENT
-------------
                                X             Y             Z
Electronic contribution:      3.95301     -22.12716      14.43230
Nuclear contribution   :     -4.39621      24.63309     -16.09939
                        -----------------------------------------
Total Dipole Moment    :     -0.44320       2.50593      -1.66709
                        -----------------------------------------
Magnitude (a.u.)       :      3.04225
Magnitude (Debye)      :      7.73278

Rotational constants in cm-1:     0.012769     0.002548     0.002431
Rotational constants in MHz :   382.806823    76.396327    72.881192

                             ****ORCA TERMINATED NORMALLY****
TOTAL RUN TIME: 0 days 0 hours 27 minutes 26 seconds 85 msec
