                         Program Version 5.0.4 -  RELEASE  -
|  1> ! nofrozencore ReducedPop printbasis
|  2> ! B3LYP TZVP
|  3>
|  4> %basis
|  5> newgto V "CP(PPP)" end
|  6> end
|  7>
|  8> %pal
|  9> nprocs 4
| 10> end
| 11>
| 12> % sym SymThresh 1e-2 end
| 13> * xyz -2 2
| 14> V -0.7799661214137816 -0.7968809672969092 0.026422849594327828
| 15> S 0.3573008824684702 -0.941349886589902 -2.1395081297771297
| 16> S 1.2798041510115732 -1.725095449355503 0.9716063759586401
| 17> S -1.7850764674578348 1.2103463574619946 -0.953304520073591
| 18> S -0.8839220463534835 0.4040371218071677 2.1605443696485502
| 19> O -1.8957340284816948 -1.9386410162230945 0.05847012840804493
| 20> C 1.1789790679351195 -1.338650305371211 2.691506271266965
| 21> C 0.2724697031874423 -0.4446816120144751 3.189661886609011
| 22> C -0.5564134588529328 0.1485311405272088 -3.1801718198839515
| 23> C -1.461624933270825 1.0575872216247701 -2.6793521901181743
| 24> S 2.3790568990771583 -2.187035998714075 3.734439724800108
| 25> S 0.19025246742390642 -0.02029625393317294 4.939284530472141
| 26> S -2.368737919258298 2.198285182078828 -3.7350034358290123
| 27> S -0.19564368044666688 0.014628198554928635 -4.938493837502413
| 28> C 1.778297131735024 0.8818985572008384 5.226969940790177
| 29> C -1.0482882790117651 3.3308080386760293 -4.363780672150205
| 30> C 3.4993905890293795 -0.8221302477917576 4.28182267619906
| 31> C 0.6664782843900443 1.6070754976235835 -5.314645535184394
| 32> C 3.022650951906116 0.00213807711975525 5.503307657076086
| 33> H 3.6056179574780214 -0.15682042026953077 3.4201435379673044
| 34> H 4.4110065184801135 -1.3395513194783002 4.603272628522006
| 35> H 3.835773034774179 0.7603509448562427 5.616851337768208
| 36> H 2.6520193074924028 -0.7688257316218776 6.218335090057355
| 37> H 1.5987115170472788 1.4495433778555813 6.147612126708827
| 38> H 1.9530943100107632 1.4764595814701444 4.325659992277085
| 39> C -0.254812205172371 2.8334655817663643 -5.615184444623933
| 40> H 1.1589279138066606 1.4097410051922956 -6.279136513569534
| 41> H 1.249660329548506 1.8361362912640398 -4.412675735094282
| 42> H -1.1064522346579657 2.3058499965989276 -6.193937500919276
| 43> H 0.5553529988720876 3.6553221004555083 -5.644607768667307
| 44> H -0.33826821455516837 3.431091919034905 -3.5320422534233695
| 45> H -1.611726327866148 4.198013216102539 -4.740599985026845
| 46> *
| 47>
| 48> % eprnmr
| 49> gtensor true
| 50> Nuclei = all H {aiso,adip,aorb,fgrad,rho}
| 51> Nuclei = all V {aiso,adip,aorb,fgrad,rho}
| 52> end
| 53>
| 54>                          ****END OF INPUT****

CARTESIAN COORDINATES (ANGSTROEM)
---------------------------------
  V     -0.780768   -0.797750    0.026524
  S      0.356499   -0.942219   -2.139407
  S      1.279003   -1.725965    0.971708
  S     -1.785878    1.209477   -0.953203
  S     -0.884724    0.403168    2.160646
  O     -1.896536   -1.939510    0.058572
  C      1.178178   -1.339520    2.691608
  C      0.271668   -0.445551    3.189763
  C     -0.557215    0.147662   -3.180070
  C     -1.462426    1.056718   -2.679251
  S      2.378255   -2.187905    3.734541
  S      0.189451   -0.021166    4.939386
  S     -2.369539    2.197416   -3.734902
  S     -0.196445    0.013759   -4.938392
  C      1.777496    0.881029    5.227071
  C     -1.049090    3.329939   -4.363679
  C      3.498589   -0.823000    4.281924
  C      0.665677    1.606206   -5.314544
  C      3.021849    0.001269    5.503409
  H      3.604816   -0.157690    3.420245
  H      4.410205   -1.340421    4.603374
  H      3.834972    0.759482    5.616953
  H      2.651218   -0.769695    6.218437
  H      1.597910    1.448674    6.147714
  H      1.952293    1.475590    4.325761
  C     -0.255614    2.832596   -5.615083
  H      1.158126    1.408872   -6.279035
  H      1.248859    1.835267   -4.412574
  H     -1.107254    2.304981   -6.193836
  H      0.554552    3.654453   -5.644506
  H     -0.339070    3.430223   -3.531941
  H     -1.612528    4.197144   -4.740498

 Total Charge           Charge          ....   -2
 Multiplicity           Mult            ....    2
 Number of Electrons    NEL             ....  233
 Basis Dimension        Dim             ....  517

ORBITAL ENERGIES
----------------
                 SPIN UP ORBITALS
  NO   OCC          E(Eh)            E(eV)
   0   1.0000    -196.641898     -5350.8981
   1   1.0000     -88.677156     -2413.0281
   2   1.0000     -88.677119     -2413.0271
   3   1.0000     -88.677088     -2413.0262
   4   1.0000     -88.677032     -2413.0247
   5   1.0000     -88.614078     -2411.3117
   6   1.0000     -88.614036     -2411.3105
   7   1.0000     -88.613646     -2411.2999
   8   1.0000     -88.613639     -2411.2997
   9   1.0000     -22.017700      -599.1321
  10   1.0000     -18.858955      -513.1782
  11   1.0000     -18.524511      -504.0776
  12   1.0000     -18.518755      -503.9209
  13   1.0000     -18.518719      -503.9200
  14   1.0000     -10.017413      -272.5877
  15   1.0000     -10.017354      -272.5861
  16   1.0000     -10.016305      -272.5575
  17   1.0000     -10.016291      -272.5571
  18   1.0000     -10.015926      -272.5472
  19   1.0000     -10.008910      -272.3563
  20   1.0000      -9.994689      -271.9693
  21   1.0000      -9.994062      -271.9523
  22   1.0000      -9.993803      -271.9452
  23   1.0000      -9.993121      -271.9267
  24   1.0000      -7.730906      -210.3687
  25   1.0000      -7.730881      -210.3680
  26   1.0000      -7.730789      -210.3655
  27   1.0000      -7.730734      -210.3640
  28   1.0000      -7.668611      -208.6735
  29   1.0000      -7.668555      -208.6720
  30   1.0000      -7.668152      -208.6610
  31   1.0000      -7.668129      -208.6604
  32   1.0000      -5.696030      -154.9968
  33   1.0000      -5.696006      -154.9962
  34   1.0000      -5.695970      -154.9952
  35   1.0000      -5.695921      -154.9939
  36   1.0000      -5.692213      -154.8930
  37   1.0000      -5.692185      -154.8922
  38   1.0000      -5.692128      -154.8907
  39   1.0000      -5.692072      -154.8892
  40   1.0000      -5.685821      -154.7191
  41   1.0000      -5.685797      -154.7184
  42   1.0000      -5.685614      -154.7134
  43   1.0000      -5.685556      -154.7118
  44   1.0000      -5.633377      -153.2920
  45   1.0000      -5.633325      -153.2906
  46   1.0000      -5.632949      -153.2803
  47   1.0000      -5.632934      -153.2799
  48   1.0000      -5.627017      -153.1189
  49   1.0000      -5.626971      -153.1177
  50   1.0000      -5.626658      -153.1092
  51   1.0000      -5.626606      -153.1077
  52   1.0000      -5.626567      -153.1067
  53   1.0000      -5.626543      -153.1060
  54   1.0000      -5.626158      -153.0956
  55   1.0000      -5.626150      -153.0953
  56   1.0000      -2.411412       -65.6179
  57   1.0000      -1.452754       -39.5315
  58   1.0000      -1.441220       -39.2176
  59   1.0000      -1.440119       -39.1876
  60   1.0000      -0.643467       -17.5096
  61   1.0000      -0.642509       -17.4836
  62   1.0000      -0.619945       -16.8696
  63   1.0000      -0.593412       -16.1476
  64   1.0000      -0.591740       -16.1021
  65   1.0000      -0.575849       -15.6696
  66   1.0000      -0.575765       -15.6674
  67   1.0000      -0.490018       -13.3341
  68   1.0000      -0.488122       -13.2825
  69   1.0000      -0.487380       -13.2623
  70   1.0000      -0.486859       -13.2481
  71   1.0000      -0.422976       -11.5098
  72   1.0000      -0.420195       -11.4341
  73   1.0000      -0.407348       -11.0845
  74   1.0000      -0.400155       -10.8888
  75   1.0000      -0.370385       -10.0787
  76   1.0000      -0.364703        -9.9241
  77   1.0000      -0.310076        -8.4376
  78   1.0000      -0.305153        -8.3036
  79   1.0000      -0.278186        -7.5698
  80   1.0000      -0.276899        -7.5348
  81   1.0000      -0.265391        -7.2217
  82   1.0000      -0.261735        -7.1222
  83   1.0000      -0.248162        -6.7528
  84   1.0000      -0.242778        -6.6063
  85   1.0000      -0.200337        -5.4514
  86   1.0000      -0.195984        -5.3330
  87   1.0000      -0.183716        -4.9992
  88   1.0000      -0.182502        -4.9661
  89   1.0000      -0.176883        -4.8132
  90   1.0000      -0.169406        -4.6098
  91   1.0000      -0.156964        -4.2712
  92   1.0000      -0.149420        -4.0659
  93   1.0000      -0.148336        -4.0364
  94   1.0000      -0.144878        -3.9423
  95   1.0000      -0.142520        -3.8782
  96   1.0000      -0.140510        -3.8235
  97   1.0000      -0.099175        -2.6987
  98   1.0000      -0.098707        -2.6860
  99   1.0000      -0.089700        -2.4409
 100   1.0000      -0.084297        -2.2938
 101   1.0000      -0.082292        -2.2393
 102   1.0000      -0.081945        -2.2298
 103   1.0000      -0.069751        -1.8980
 104   1.0000      -0.050950        -1.3864
 105   1.0000      -0.039428        -1.0729
 106   1.0000      -0.038647        -1.0516
 107   1.0000      -0.037315        -1.0154
 108   1.0000      -0.032885        -0.8948
 109   1.0000      -0.015267        -0.4154
 110   1.0000      -0.006411        -0.1744
 111   1.0000      -0.004247        -0.1156
 112   1.0000       0.003992         0.1086
 113   1.0000       0.009351         0.2545
 114   1.0000       0.014585         0.3969
 115   1.0000       0.032758         0.8914
 116   1.0000       0.058876         1.6021
 117   0.0000       0.185546         5.0490
 118   0.0000       0.189793         5.1645
 119   0.0000       0.193249         5.2586
 120   0.0000       0.196653         5.3512
 121   0.0000       0.209720         5.7068

                 SPIN DOWN ORBITALS
  NO   OCC          E(Eh)            E(eV)
   0   1.0000    -196.642039     -5350.9019
   1   1.0000     -88.677169     -2413.0285
   2   1.0000     -88.677132     -2413.0274
   3   1.0000     -88.677101     -2413.0266
   4   1.0000     -88.677045     -2413.0251
   5   1.0000     -88.614236     -2411.3160
   6   1.0000     -88.614195     -2411.3148
   7   1.0000     -88.613806     -2411.3042
   8   1.0000     -88.613799     -2411.3040
   9   1.0000     -22.003024      -598.7327
  10   1.0000     -18.862546      -513.2760
  11   1.0000     -18.519374      -503.9378
  12   1.0000     -18.503264      -503.4994
  13   1.0000     -18.502575      -503.4807
  14   1.0000     -10.017409      -272.5876
  15   1.0000     -10.017351      -272.5860
  16   1.0000     -10.016302      -272.5574
  17   1.0000     -10.016288      -272.5571
  18   1.0000     -10.015925      -272.5472
  19   1.0000     -10.008910      -272.3563
  20   1.0000      -9.994436      -271.9624
  21   1.0000      -9.993812      -271.9454
  22   1.0000      -9.993550      -271.9383
  23   1.0000      -9.992870      -271.9198
  24   1.0000      -7.730920      -210.3690
  25   1.0000      -7.730895      -210.3684
  26   1.0000      -7.730803      -210.3658
  27   1.0000      -7.730748      -210.3643
  28   1.0000      -7.668758      -208.6775
  29   1.0000      -7.668703      -208.6760
  30   1.0000      -7.668300      -208.6650
  31   1.0000      -7.668277      -208.6644
  32   1.0000      -5.696047      -154.9973
  33   1.0000      -5.696024      -154.9967
  34   1.0000      -5.695987      -154.9957
  35   1.0000      -5.695938      -154.9943
  36   1.0000      -5.692233      -154.8935
  37   1.0000      -5.692205      -154.8928
  38   1.0000      -5.692148      -154.8912
  39   1.0000      -5.692092      -154.8897
  40   1.0000      -5.685838      -154.7195
  41   1.0000      -5.685814      -154.7189
  42   1.0000      -5.685631      -154.7139
  43   1.0000      -5.685573      -154.7123
  44   1.0000      -5.633546      -153.2966
  45   1.0000      -5.633495      -153.2952
  46   1.0000      -5.633120      -153.2850
  47   1.0000      -5.633105      -153.2846
  48   1.0000      -5.627403      -153.1294
  49   1.0000      -5.627358      -153.1282
  50   1.0000      -5.626957      -153.1173
  51   1.0000      -5.626933      -153.1166
  52   1.0000      -5.626794      -153.1129
  53   1.0000      -5.626743      -153.1114
  54   1.0000      -5.626294      -153.0992
  55   1.0000      -5.626286      -153.0990
  56   1.0000      -2.367215       -64.4152
  57   1.0000      -1.433903       -39.0185
  58   1.0000      -1.379775       -37.5456
  59   1.0000      -1.379144       -37.5284
  60   1.0000      -0.643416       -17.5082
  61   1.0000      -0.642456       -17.4821
  62   1.0000      -0.627645       -17.0791
  63   1.0000      -0.593223       -16.1424
  64   1.0000      -0.591552       -16.0969
  65   1.0000      -0.575843       -15.6695
  66   1.0000      -0.575758       -15.6672
  67   1.0000      -0.490053       -13.3350
  68   1.0000      -0.488132       -13.2827
  69   1.0000      -0.487430       -13.2636
  70   1.0000      -0.486888       -13.2489
  71   1.0000      -0.423209       -11.5161
  72   1.0000      -0.420495       -11.4423
  73   1.0000      -0.407351       -11.0846
  74   1.0000      -0.400249       -10.8913
  75   1.0000      -0.370367       -10.0782
  76   1.0000      -0.364698        -9.9239
  77   1.0000      -0.310053        -8.4370
  78   1.0000      -0.305132        -8.3031
  79   1.0000      -0.278174        -7.5695
  80   1.0000      -0.276888        -7.5345
  81   1.0000      -0.265299        -7.2192
  82   1.0000      -0.261696        -7.1211
  83   1.0000      -0.247965        -6.7475
  84   1.0000      -0.242672        -6.6034
  85   1.0000      -0.199876        -5.4389
  86   1.0000      -0.195865        -5.3298
  87   1.0000      -0.183666        -4.9978
  88   1.0000      -0.180532        -4.9125
  89   1.0000      -0.176824        -4.8116
  90   1.0000      -0.169277        -4.6063
  91   1.0000      -0.156674        -4.2633
  92   1.0000      -0.148936        -4.0527
  93   1.0000      -0.148069        -4.0292
  94   1.0000      -0.144638        -3.9358
  95   1.0000      -0.142337        -3.8732
  96   1.0000      -0.140363        -3.8195
  97   1.0000      -0.098696        -2.6856
  98   1.0000      -0.097167        -2.6440
  99   1.0000      -0.089986        -2.4487
 100   1.0000      -0.083868        -2.2822
 101   1.0000      -0.083818        -2.2808
 102   1.0000      -0.082340        -2.2406
 103   1.0000      -0.070981        -1.9315
 104   1.0000      -0.046603        -1.2681
 105   1.0000      -0.038882        -1.0580
 106   1.0000      -0.038520        -1.0482
 107   1.0000      -0.036359        -0.9894
 108   1.0000      -0.032847        -0.8938
 109   1.0000      -0.014374        -0.3911
 110   1.0000      -0.007748        -0.2108
 111   1.0000      -0.003419        -0.0930
 112   1.0000       0.004969         0.1352
 113   1.0000       0.010234         0.2785
 114   1.0000       0.033036         0.8990
 115   1.0000       0.058092         1.5808
 116   0.0000       0.183605         4.9961
 117   0.0000       0.186728         5.0811
 118   0.0000       0.190111         5.1732
 119   0.0000       0.193868         5.2754
 120   0.0000       0.196918         5.3584

MULLIKEN ATOMIC CHARGES AND SPIN POPULATIONS
--------------------------------------------
   0 V :    0.444652    1.199557
   1 S :   -0.248022   -0.023909
   2 S :   -0.250739   -0.024056
   3 S :   -0.248167   -0.023828
   4 S :   -0.251139   -0.023992
   5 O :   -0.505263   -0.139186
   6 C :   -0.116489    0.008768
   7 C :   -0.115107    0.008776
   8 C :   -0.115390    0.008704
   9 C :   -0.115798    0.008636
  10 S :   -0.046477   -0.000154
  11 S :   -0.046313   -0.000189
  12 S :   -0.048722   -0.000185
  13 S :   -0.048725   -0.000215
  14 C :   -0.347308    0.000272
  15 C :   -0.359419    0.000294
  16 C :   -0.346571    0.000255
  17 C :   -0.359503    0.000315
  18 C :   -0.095317    0.000231
  19 H :    0.148561   -0.000105
  20 H :    0.104158    0.000018
  21 H :    0.051012    0.000011
  22 H :    0.090587   -0.000006
  23 H :    0.104105    0.000019
  24 H :    0.148937   -0.000107
  25 C :   -0.105570    0.000259
  26 H :    0.105565    0.000028
  27 H :    0.151354   -0.000120
  28 H :    0.105587   -0.000019
  29 H :    0.058688    0.000018
  30 H :    0.151215   -0.000116
  31 H :    0.105616    0.000026
Sum of atomic charges         :   -2.0000000

LOEWDIN ATOMIC CHARGES AND SPIN POPULATIONS
-------------------------------------------
   0 V :   -0.243390    1.153608
   1 S :    0.094070   -0.016181
   2 S :    0.091057   -0.016286
   3 S :    0.093847   -0.016110
   4 S :    0.090776   -0.016262
   5 O :   -0.350105   -0.124589
   6 C :   -0.556232    0.009924
   7 C :   -0.555689    0.009881
   8 C :   -0.559121    0.009806
   9 C :   -0.559521    0.009825
  10 S :    0.334390   -0.001030
  11 S :    0.334268   -0.001050
  12 S :    0.333246   -0.001058
  13 S :    0.333195   -0.001072
  14 C :   -0.297781    0.000166
  15 C :   -0.305130    0.000175
  16 C :   -0.297868    0.000158
  17 C :   -0.305235    0.000185
  18 C :   -0.198667   -0.000042
  19 H :    0.066628   -0.000026
  20 H :    0.047547    0.000003
  21 H :    0.059117    0.000020
  22 H :    0.066534    0.000018
  23 H :    0.047532    0.000004
  24 H :    0.066760   -0.000027
  25 C :   -0.223468   -0.000052
  26 H :    0.049029    0.000007
  27 H :    0.068001   -0.000028
  28 H :    0.084170    0.000023
  29 H :    0.075085    0.000034
  30 H :    0.067988   -0.000028
  31 H :    0.048965    0.000006

  Mayer bond orders larger than 0.100000
B(  0-V ,  1-S ) :   0.7875 B(  0-V ,  2-S ) :   0.7913 B(  0-V ,  3-S ) :   0.7895
B(  0-V ,  4-S ) :   0.7887 B(  0-V ,  5-O ) :   2.1091 B(  1-S ,  8-C ) :   1.1456
B(  2-S ,  6-C ) :   1.1404 B(  3-S ,  9-C ) :   1.1444 B(  4-S ,  7-C ) :   1.1416
B(  6-C ,  7-C ) :   1.5044 B(  6-C , 10-S ) :   0.9497 B(  7-C , 11-S ) :   0.9495
B(  8-C ,  9-C ) :   1.4895 B(  8-C , 13-S ) :   0.9449 B(  9-C , 12-S ) :   0.9451
B( 10-S , 16-C ) :   1.0039 B( 11-S , 14-C ) :   1.0040 B( 12-S , 15-C ) :   1.0078
B( 13-S , 17-C ) :   1.0083 B( 14-C , 18-C ) :   0.8714 B( 14-C , 23-H ) :   0.9730
B( 14-C , 24-H ) :   0.9730 B( 15-C , 25-C ) :   0.8725 B( 15-C , 30-H ) :   0.9698
B( 15-C , 31-H ) :   0.9742 B( 16-C , 18-C ) :   0.8716 B( 16-C , 19-H ) :   0.9729
B( 16-C , 20-H ) :   0.9730 B( 17-C , 25-C ) :   0.8721 B( 17-C , 26-H ) :   0.9743
B( 17-C , 27-H ) :   0.9696 B( 18-C , 21-H ) :   0.9515 B( 18-C , 22-H ) :   0.9633
B( 25-C , 28-H ) :   0.9428 B( 25-C , 29-H ) :   0.9432

FINAL SINGLE POINT ENERGY     -4592.662042281451

DIPOLE MOMENT
-------------
                                X             Y             Z
Electronic contribution:    -18.37228     -18.73633       0.59388
Nuclear contribution   :     20.45589      20.80904      -0.56379
                        -----------------------------------------
Total Dipole Moment    :      2.08362       2.07270       0.03008
                        -----------------------------------------
Magnitude (a.u.)       :      2.93913
Magnitude (Debye)      :      7.47066

Rotational constants in cm-1:     0.012761     0.002548     0.002431
Rotational constants in MHz :   382.562264    76.390443    72.883386

                             ****ORCA TERMINATED NORMALLY****
TOTAL RUN TIME: 0 days 0 hours 43 minutes 20 seconds 757 msec
