                         Program Version 5.0.4 -  RELEASE  -
|  1> ! nofrozencore ReducedPop printbasis
|  2> ! B3LYP TZVP
|  3>
|  4> %basis
|  5> newgto V "CP(PPP)" end
|  6> end
|  7>
|  8> %pal
|  9> nprocs 4
| 10> end
| 11>
| 12> % sym SymThresh 1e-2 end
| 13> * xyz -2 2
| 14> V 0.8236515826584934 0.8333735551801053 -0.06550613773251375
| 15> S 0.3260780784974156 0.2947327716604572 2.2830702084144887
| 16> S 1.8258344294026467 -1.4027254026467733 -0.2729112743042318
| 17> S -1.4044209145490671 1.829929624915342 0.23817448833231086
| 18> S 0.11756025647903232 0.15344776606877464 -2.321320818684933
| 19> O 1.9486069190049058 1.9730243792160431 -0.14976978363593488
| 20> C 2.0103875474118738 -1.7656281891642835 -2.004366802183853
| 21> C 1.2558741246600655 -1.0811122127835133 -2.906553637437412
| 22> C -0.8653071066544855 1.4753529194367454 2.8741839897132047
| 23> C -1.6280746754521431 2.1523166981649178 1.9729933475483048
| 24> S 3.051311480063009 -3.235059544310675 -2.28765002155227
| 25> S 1.0408447096159537 -1.4197222329890218 -4.684843379494148
| 26> S -3.0844296084142493 3.201884863823638 2.2901743371216536
| 27> S -1.0566243265381212 1.4040687008424872 4.685974185015465
| 28> C 0.3009493293434589 -3.109246801381053 -4.581656105525208
| 29> C -4.200223447621989 1.9411211043193832 3.0495716785857585
| 30> C 1.751394516470923 -4.4194029226153475 -2.8529977235988992
| 31> C -2.7373532657699506 0.6447374423431187 4.779106459439614
| 32> C 1.2666817893275564 -4.2642152860668805 -4.297960166178893
| 33> H 0.9153078755745337 -4.341613549649632 -2.1509599811888545
| 34> H 2.2029822423514447 -5.41423225193479 -2.7288182129021252
| 35> H 0.7408373172069687 -5.1985872549786425 -4.564886375145303
| 36> H 2.1344367715337325 -4.1837442393481865 -4.964909468768944
| 37> H -0.17449913263417408 -3.2688444561461623 -5.560034557665574
| 38> H -0.49116758763465773 -3.0696845230155687 -3.8274969538194057
| 39> C -3.924303668309166 1.5751868656448154 4.5112166414350225
| 40> H -2.8118320943461064 0.2514894194795155 5.803184753159772
| 41> H -2.7459797003283497 -0.2076481081761501 4.092576145963382
| 42> H -3.803748015110723 2.494596232190299 5.098223174215818
| 43> H -4.827181496509181 1.0655031175348946 4.893048263000662
| 44> H -4.165920774324564 1.0525727915504741 2.4113636082919268
| 45> H -5.208392908784097 2.372710063069461 2.9702149473077624
| 46> *
| 47>
| 48> % eprnmr
| 49> gtensor true
| 50> Nuclei = all H {aiso,adip,aorb,fgrad,rho}
| 51> Nuclei = all V {aiso,adip,aorb,fgrad,rho}
| 52> end
| 53>
| 54>                          ****END OF INPUT****

CARTESIAN COORDINATES (ANGSTROEM)
---------------------------------
  V      0.824522    0.834171   -0.065629
  S      0.326949    0.295530    2.282948
  S      1.826705   -1.401928   -0.273034
  S     -1.403550    1.830727    0.238052
  S      0.118431    0.154245   -2.321443
  O      1.949478    1.973822   -0.149892
  C      2.011258   -1.764831   -2.004489
  C      1.256745   -1.080315   -2.906676
  C     -0.864436    1.476150    2.874061
  C     -1.627204    2.153114    1.972871
  S      3.052182   -3.234262   -2.287773
  S      1.041715   -1.418925   -4.684966
  S     -3.083559    3.202682    2.290052
  S     -1.055754    1.404866    4.685852
  C      0.301820   -3.108450   -4.581779
  C     -4.199353    1.941918    3.049449
  C      1.752265   -4.418606   -2.853120
  C     -2.736483    0.645535    4.778984
  C      1.267553   -4.263418   -4.298083
  H      0.916179   -4.340816   -2.151083
  H      2.203853   -5.413435   -2.728941
  H      0.741708   -5.197790   -4.565009
  H      2.135308   -4.182947   -4.965032
  H     -0.173628   -3.268047   -5.560157
  H     -0.490297   -3.068887   -3.827620
  C     -3.923433    1.575984    4.511094
  H     -2.810961    0.252287    5.803062
  H     -2.745109   -0.206851    4.092454
  H     -3.802877    2.495393    5.098101
  H     -4.826311    1.066300    4.892926
  H     -4.165050    1.053370    2.411241
  H     -5.207522    2.373507    2.970092

 Total Charge           Charge          ....   -2
 Multiplicity           Mult            ....    2
 Number of Electrons    NEL             ....  233
 Basis Dimension        Dim             ....  517

ORBITAL ENERGIES
----------------
                 SPIN UP ORBITALS
  NO   OCC          E(Eh)            E(eV)
   0   1.0000    -196.640269     -5350.8537
   1   1.0000     -88.682672     -2413.1782
   2   1.0000     -88.682632     -2413.1771
   3   1.0000     -88.682544     -2413.1747
   4   1.0000     -88.682540     -2413.1746
   5   1.0000     -88.610895     -2411.2250
   6   1.0000     -88.610887     -2411.2248
   7   1.0000     -88.610886     -2411.2248
   8   1.0000     -88.610805     -2411.2226
   9   1.0000     -22.015508      -599.0724
  10   1.0000     -18.855088      -513.0730
  11   1.0000     -18.522515      -504.0233
  12   1.0000     -18.516512      -503.8599
  13   1.0000     -18.516508      -503.8598
  14   1.0000     -10.017760      -272.5971
  15   1.0000     -10.017755      -272.5970
  16   1.0000     -10.017651      -272.5941
  17   1.0000     -10.017639      -272.5938
  18   1.0000     -10.005641      -272.2673
  19   1.0000     -10.005542      -272.2646
  20   1.0000      -9.995443      -271.9898
  21   1.0000      -9.995382      -271.9882
  22   1.0000      -9.994732      -271.9705
  23   1.0000      -9.994679      -271.9690
  24   1.0000      -7.735707      -210.4993
  25   1.0000      -7.735671      -210.4983
  26   1.0000      -7.735599      -210.4964
  27   1.0000      -7.735588      -210.4960
  28   1.0000      -7.665158      -208.5796
  29   1.0000      -7.665145      -208.5792
  30   1.0000      -7.665131      -208.5788
  31   1.0000      -7.665066      -208.5770
  32   1.0000      -5.700947      -155.1307
  33   1.0000      -5.700905      -155.1295
  34   1.0000      -5.700829      -155.1274
  35   1.0000      -5.700819      -155.1272
  36   1.0000      -5.697194      -155.0285
  37   1.0000      -5.697166      -155.0278
  38   1.0000      -5.697096      -155.0259
  39   1.0000      -5.697084      -155.0255
  40   1.0000      -5.690458      -154.8452
  41   1.0000      -5.690416      -154.8441
  42   1.0000      -5.690341      -154.8420
  43   1.0000      -5.690335      -154.8419
  44   1.0000      -5.630011      -153.2004
  45   1.0000      -5.630007      -153.2003
  46   1.0000      -5.629989      -153.1998
  47   1.0000      -5.629926      -153.1981
  48   1.0000      -5.623702      -153.0287
  49   1.0000      -5.623689      -153.0284
  50   1.0000      -5.623678      -153.0281
  51   1.0000      -5.623601      -153.0260
  52   1.0000      -5.623056      -153.0111
  53   1.0000      -5.623029      -153.0104
  54   1.0000      -5.623009      -153.0098
  55   1.0000      -5.622952      -153.0083
  56   1.0000      -2.408703       -65.5441
  57   1.0000      -1.449550       -39.4443
  58   1.0000      -1.438301       -39.1381
  59   1.0000      -1.437567       -39.1182
  60   1.0000      -0.642559       -17.4849
  61   1.0000      -0.642503       -17.4834
  62   1.0000      -0.616458       -16.7747
  63   1.0000      -0.591223       -16.0880
  64   1.0000      -0.590799       -16.0765
  65   1.0000      -0.579591       -15.7715
  66   1.0000      -0.579552       -15.7704
  67   1.0000      -0.492403       -13.3990
  68   1.0000      -0.491048       -13.3621
  69   1.0000      -0.484318       -13.1790
  70   1.0000      -0.483448       -13.1553
  71   1.0000      -0.420169       -11.4334
  72   1.0000      -0.417556       -11.3623
  73   1.0000      -0.409652       -11.1472
  74   1.0000      -0.405164       -11.0251
  75   1.0000      -0.379667       -10.3313
  76   1.0000      -0.376479       -10.2445
  77   1.0000      -0.291322        -7.9273
  78   1.0000      -0.291146        -7.9225
  79   1.0000      -0.276820        -7.5327
  80   1.0000      -0.276537        -7.5249
  81   1.0000      -0.260266        -7.0822
  82   1.0000      -0.256246        -6.9728
  83   1.0000      -0.242248        -6.5919
  84   1.0000      -0.239614        -6.5202
  85   1.0000      -0.195915        -5.3311
  86   1.0000      -0.194941        -5.3046
  87   1.0000      -0.194373        -5.2892
  88   1.0000      -0.191269        -5.2047
  89   1.0000      -0.182918        -4.9775
  90   1.0000      -0.182689        -4.9712
  91   1.0000      -0.176685        -4.8078
  92   1.0000      -0.151955        -4.1349
  93   1.0000      -0.150453        -4.0940
  94   1.0000      -0.147415        -4.0114
  95   1.0000      -0.145404        -3.9566
  96   1.0000      -0.143591        -3.9073
  97   1.0000      -0.097797        -2.6612
  98   1.0000      -0.096827        -2.6348
  99   1.0000      -0.090166        -2.4535
 100   1.0000      -0.084415        -2.2970
 101   1.0000      -0.082783        -2.2526
 102   1.0000      -0.075639        -2.0582
 103   1.0000      -0.069773        -1.8986
 104   1.0000      -0.052923        -1.4401
 105   1.0000      -0.041201        -1.1211
 106   1.0000      -0.039378        -1.0715
 107   1.0000      -0.039154        -1.0654
 108   1.0000      -0.031017        -0.8440
 109   1.0000      -0.014441        -0.3930
 110   1.0000      -0.006769        -0.1842
 111   1.0000      -0.000048        -0.0013
 112   1.0000       0.018132         0.4934
 113   1.0000       0.018651         0.5075
 114   1.0000       0.019491         0.5304
 115   1.0000       0.031743         0.8638
 116   1.0000       0.056293         1.5318
 117   0.0000       0.189226         5.1491
 118   0.0000       0.193661         5.2698
 119   0.0000       0.195840         5.3291
 120   0.0000       0.195977         5.3328
 121   0.0000       0.211371         5.7517

                 SPIN DOWN ORBITALS
  NO   OCC          E(Eh)            E(eV)
   0   1.0000    -196.640402     -5350.8574
   1   1.0000     -88.682689     -2413.1786
   2   1.0000     -88.682648     -2413.1775
   3   1.0000     -88.682561     -2413.1752
   4   1.0000     -88.682556     -2413.1750
   5   1.0000     -88.611061     -2411.2296
   6   1.0000     -88.611053     -2411.2293
   7   1.0000     -88.611051     -2411.2293
   8   1.0000     -88.610970     -2411.2271
   9   1.0000     -22.000814      -598.6726
  10   1.0000     -18.858622      -513.1692
  11   1.0000     -18.517350      -503.8827
  12   1.0000     -18.501178      -503.4426
  13   1.0000     -18.500188      -503.4157
  14   1.0000     -10.017756      -272.5970
  15   1.0000     -10.017750      -272.5968
  16   1.0000     -10.017647      -272.5940
  17   1.0000     -10.017634      -272.5937
  18   1.0000     -10.005642      -272.2674
  19   1.0000     -10.005543      -272.2647
  20   1.0000      -9.995203      -271.9833
  21   1.0000      -9.995143      -271.9817
  22   1.0000      -9.994494      -271.9640
  23   1.0000      -9.994441      -271.9626
  24   1.0000      -7.735724      -210.4997
  25   1.0000      -7.735688      -210.4988
  26   1.0000      -7.735616      -210.4968
  27   1.0000      -7.735605      -210.4965
  28   1.0000      -7.665312      -208.5837
  29   1.0000      -7.665299      -208.5834
  30   1.0000      -7.665284      -208.5830
  31   1.0000      -7.665219      -208.5812
  32   1.0000      -5.700967      -155.1312
  33   1.0000      -5.700925      -155.1301
  34   1.0000      -5.700849      -155.1280
  35   1.0000      -5.700840      -155.1277
  36   1.0000      -5.697216      -155.0291
  37   1.0000      -5.697187      -155.0284
  38   1.0000      -5.697118      -155.0265
  39   1.0000      -5.697105      -155.0261
  40   1.0000      -5.690482      -154.8459
  41   1.0000      -5.690440      -154.8447
  42   1.0000      -5.690365      -154.8427
  43   1.0000      -5.690360      -154.8426
  44   1.0000      -5.630185      -153.2051
  45   1.0000      -5.630181      -153.2050
  46   1.0000      -5.630163      -153.2045
  47   1.0000      -5.630100      -153.2028
  48   1.0000      -5.624087      -153.0392
  49   1.0000      -5.624075      -153.0389
  50   1.0000      -5.624062      -153.0385
  51   1.0000      -5.623988      -153.0365
  52   1.0000      -5.623223      -153.0157
  53   1.0000      -5.623196      -153.0149
  54   1.0000      -5.623172      -153.0143
  55   1.0000      -5.623117      -153.0128
  56   1.0000      -2.364446       -64.3399
  57   1.0000      -1.430563       -38.9276
  58   1.0000      -1.377300       -37.4782
  59   1.0000      -1.376115       -37.4460
  60   1.0000      -0.642515       -17.4837
  61   1.0000      -0.642457       -17.4821
  62   1.0000      -0.624055       -16.9814
  63   1.0000      -0.591040       -16.0830
  64   1.0000      -0.590595       -16.0709
  65   1.0000      -0.579601       -15.7717
  66   1.0000      -0.579562       -15.7707
  67   1.0000      -0.492472       -13.4008
  68   1.0000      -0.491122       -13.3641
  69   1.0000      -0.484352       -13.1799
  70   1.0000      -0.483497       -13.1566
  71   1.0000      -0.420463       -11.4414
  72   1.0000      -0.417926       -11.3723
  73   1.0000      -0.409682       -11.1480
  74   1.0000      -0.405272       -11.0280
  75   1.0000      -0.379611       -10.3297
  76   1.0000      -0.376490       -10.2448
  77   1.0000      -0.291304        -7.9268
  78   1.0000      -0.291135        -7.9222
  79   1.0000      -0.276802        -7.5322
  80   1.0000      -0.276530        -7.5248
  81   1.0000      -0.260111        -7.0780
  82   1.0000      -0.256250        -6.9729
  83   1.0000      -0.242139        -6.5889
  84   1.0000      -0.239557        -6.5187
  85   1.0000      -0.195868        -5.3298
  86   1.0000      -0.194923        -5.3041
  87   1.0000      -0.194045        -5.2802
  88   1.0000      -0.191249        -5.2042
  89   1.0000      -0.182870        -4.9761
  90   1.0000      -0.182642        -4.9699
  91   1.0000      -0.174807        -4.7567
  92   1.0000      -0.151694        -4.1278
  93   1.0000      -0.149736        -4.0745
  94   1.0000      -0.147277        -4.0076
  95   1.0000      -0.145187        -3.9508
  96   1.0000      -0.143506        -3.9050
  97   1.0000      -0.097040        -2.6406
  98   1.0000      -0.095180        -2.5900
  99   1.0000      -0.090196        -2.4544
 100   1.0000      -0.084472        -2.2986
 101   1.0000      -0.082267        -2.2386
 102   1.0000      -0.077671        -2.1135
 103   1.0000      -0.071120        -1.9353
 104   1.0000      -0.047939        -1.3045
 105   1.0000      -0.040976        -1.1150
 106   1.0000      -0.039614        -1.0780
 107   1.0000      -0.039499        -1.0748
 108   1.0000      -0.030006        -0.8165
 109   1.0000      -0.014024        -0.3816
 110   1.0000      -0.005386        -0.1466
 111   1.0000      -0.000730        -0.0199
 112   1.0000       0.019776         0.5381
 113   1.0000       0.020247         0.5509
 114   1.0000       0.031571         0.8591
 115   1.0000       0.055535         1.5112
 116   0.0000       0.185261         5.0412
 117   0.0000       0.190124         5.1735
 118   0.0000       0.194753         5.2995
 119   0.0000       0.196074         5.3354
 120   0.0000       0.196270         5.3408

MULLIKEN ATOMIC CHARGES AND SPIN POPULATIONS
--------------------------------------------
   0 V :    0.462405    1.195239
   1 S :   -0.253785   -0.022755
   2 S :   -0.253554   -0.022575
   3 S :   -0.253931   -0.022654
   4 S :   -0.253346   -0.022513
   5 O :   -0.534454   -0.136365
   6 C :   -0.118956    0.008170
   7 C :   -0.117793    0.008265
   8 C :   -0.118104    0.008318
   9 C :   -0.117989    0.008193
  10 S :   -0.045451   -0.000687
  11 S :   -0.045290   -0.000716
  12 S :   -0.045572   -0.000719
  13 S :   -0.045568   -0.000738
  14 C :   -0.335857    0.000535
  15 C :   -0.334993    0.000548
  16 C :   -0.335553    0.000523
  17 C :   -0.334884    0.000561
  18 C :   -0.084322   -0.000011
  19 H :    0.149598   -0.000200
  20 H :    0.099647    0.000063
  21 H :    0.044068   -0.000018
  22 H :    0.083563   -0.000010
  23 H :    0.099611    0.000066
  24 H :    0.149767   -0.000201
  25 C :   -0.085648   -0.000023
  26 H :    0.099482    0.000074
  27 H :    0.149741   -0.000207
  28 H :    0.083634   -0.000012
  29 H :    0.044082   -0.000017
  30 H :    0.149929   -0.000205
  31 H :    0.099521    0.000071
Sum of atomic charges         :   -2.0000000

LOEWDIN ATOMIC CHARGES AND SPIN POPULATIONS
-------------------------------------------
   0 V :   -0.245778    1.155018
   1 S :    0.081776   -0.016528
   2 S :    0.081802   -0.016431
   3 S :    0.081578   -0.016447
   4 S :    0.082173   -0.016394
   5 O :   -0.366668   -0.122493
   6 C :   -0.540913    0.009668
   7 C :   -0.540457    0.009707
   8 C :   -0.540293    0.009676
   9 C :   -0.540583    0.009654
  10 S :    0.329957   -0.001436
  11 S :    0.329873   -0.001456
  12 S :    0.329820   -0.001455
  13 S :    0.329812   -0.001462
  14 C :   -0.291957    0.000170
  15 C :   -0.291963    0.000170
  16 C :   -0.292011    0.000161
  17 C :   -0.292071    0.000180
  18 C :   -0.184212   -0.000044
  19 H :    0.067325   -0.000054
  20 H :    0.047058    0.000008
  21 H :    0.047956   -0.000012
  22 H :    0.055434   -0.000009
  23 H :    0.047057    0.000010
  24 H :    0.067374   -0.000054
  25 C :   -0.184274   -0.000044
  26 H :    0.047025    0.000014
  27 H :    0.067327   -0.000055
  28 H :    0.055456   -0.000010
  29 H :    0.047947   -0.000011
  30 H :    0.067417   -0.000055
  31 H :    0.047013    0.000012

  Mayer bond orders larger than 0.100000
B(  0-V ,  1-S ) :   0.7898 B(  0-V ,  2-S ) :   0.7917 B(  0-V ,  3-S ) :   0.7915
B(  0-V ,  4-S ) :   0.7904 B(  0-V ,  5-O ) :   2.0818 B(  1-S ,  8-C ) :   1.1244
B(  2-S ,  6-C ) :   1.1233 B(  3-S ,  9-C ) :   1.1236 B(  4-S ,  7-C ) :   1.1241
B(  6-C ,  7-C ) :   1.5582 B(  6-C , 10-S ) :   0.9590 B(  7-C , 11-S ) :   0.9592
B(  8-C ,  9-C ) :   1.5585 B(  8-C , 13-S ) :   0.9591 B(  9-C , 12-S ) :   0.9592
B( 10-S , 16-C ) :   1.0167 B( 11-S , 14-C ) :   1.0165 B( 12-S , 15-C ) :   1.0165
B( 13-S , 17-C ) :   1.0166 B( 14-C , 18-C ) :   0.8732 B( 14-C , 23-H ) :   0.9684
B( 14-C , 24-H ) :   0.9743 B( 15-C , 25-C ) :   0.8733 B( 15-C , 30-H ) :   0.9742
B( 15-C , 31-H ) :   0.9683 B( 16-C , 18-C ) :   0.8734 B( 16-C , 19-H ) :   0.9742
B( 16-C , 20-H ) :   0.9682 B( 17-C , 25-C ) :   0.8733 B( 17-C , 26-H ) :   0.9683
B( 17-C , 27-H ) :   0.9741 B( 18-C , 21-H ) :   0.9565 B( 18-C , 22-H ) :   0.9695
B( 25-C , 28-H ) :   0.9697 B( 25-C , 29-H ) :   0.9565

FINAL SINGLE POINT ENERGY     -4592.705772564834

DIPOLE MOMENT
-------------
                                X             Y             Z
Electronic contribution:     18.72645      18.94435      -1.51028
Nuclear contribution   :    -20.90520     -21.14976       1.68241
                        -----------------------------------------
Total Dipole Moment    :     -2.17875      -2.20542       0.17213
                        -----------------------------------------
Magnitude (a.u.)       :      3.10491
Magnitude (Debye)      :      7.89205

Rotational constants in cm-1:     0.012442     0.002542     0.002414
Rotational constants in MHz :   372.998257    76.210125    72.356203

                             ****ORCA TERMINATED NORMALLY****
TOTAL RUN TIME: 0 days 0 hours 42 minutes 55 seconds 143 msec
