                         Program Version 5.0.4 -  RELEASE  -
|  1> ! nofrozencore ReducedPop printbasis
|  2> ! B3LYP TZVP
|  3>
|  4> %basis
|  5> newgto V "CP(PPP)" end
|  6> end
|  7>
|  8> %pal
|  9> nprocs 8
| 10> end
| 11>
| 12> % sym SymThresh 1e-2 end
| 13> * xyz -2 2
| 14> V 0.8157587692300591 0.5939579801804838 0.4752417019056505
| 15> S 0.38100866766115776 -1.3485884760275273 1.90459820828904
| 16> S 1.845802176838756 -0.9983339742263073 -1.0743133808604528
| 17> S -1.3184985785798664 1.3839356229029716 1.3807823569592839
| 18> S 0.16995757422041186 1.750984750764373 -1.5867000125630994
| 19> O 1.9830194820913778 1.4409368062173618 1.1604782883169993
| 20> C 1.8877566455552712 -0.13260298389351716 -2.6156169474822657
| 21> C 1.188006308339084 1.0126042803931288 -2.8294062906238926
| 22> C -0.8881695397147661 -0.7935010228075491 3.0029250758124544
| 23> C -1.5968271989531002 0.3457363122317212 2.784846630996222
| 24> S 2.9068831887877904 -0.9041780744675062 -3.8888362160898673
| 25> S 1.199579047330922 1.8798084087050517 -4.411570391351748
| 26> S -2.9182340754033116 0.8966101874533084 3.8828744246492084
| 27> S -1.1933606087946254 -1.875352150248909 4.4146597549985795
| 28> C 0.3441459496150759 0.6931534816250194 -5.525577791272841
| 29> C -4.208760763869149 -0.39565269542630166 3.643531699589352
| 30> C 1.6604464779921704 -1.451457765999091 -5.124684035490414
| 31> C -2.8711545859865315 -2.54559688012626 4.056982847588828
| 32> C 1.1758167968248165 -0.42125481420424066 -6.120569202143081
| 33> H 0.7147830765249845 -1.9543885605679294 -4.49458332714621
| 34> H 2.2877037104208755 -2.4881581539139908 -5.8035583458439435
| 35> H 0.5385587669743901 -0.9644271055858051 -6.933081613745176
| 36> H 2.082364855704638 0.033127927583749855 -6.666564121676639
| 37> H -0.1593414314146279 1.4905297905283394 -6.550654332777703
| 38> H -0.6368396899229326 0.24591866964055487 -4.902300168640338
| 39> C -4.053062757952779 -1.6746214908819248 4.44882003281259
| 40> H -2.918744044905313 -3.6231702924207583 4.696021161818742
| 41> H -2.8999063997544807 -2.8171177065969455 2.9159317674045413
| 42> H -3.9754677290916574 -1.4159148936590742 5.542075054517688
| 43> H -5.002819700327748 -2.2894856470424423 4.3257189499921544
| 44> H -4.2657295628876355 -0.6199104464028609 2.490783241399394
| 45> H -5.28408926037884 0.17221831479076566 3.965799180342927
| 46> *
| 47>
| 48> % eprnmr
| 49> gtensor true
| 50> Nuclei = all H {aiso,adip,aorb,fgrad,rho}
| 51> Nuclei = all V {aiso,adip,aorb,fgrad,rho}
| 52> end
| 53>
| 54>                          ****END OF INPUT****

CARTESIAN COORDINATES (ANGSTROEM)
---------------------------------
  V      0.816664    0.594592    0.475675
  S      0.381914   -1.347955    1.905031
  S      1.846707   -0.997700   -1.073880
  S     -1.317593    1.384569    1.381215
  S      0.170863    1.751618   -1.586267
  O      1.983925    1.441570    1.160911
  C      1.888662   -0.131969   -2.615184
  C      1.188912    1.013238   -2.828973
  C     -0.887264   -0.792867    3.003358
  C     -1.595922    0.346370    2.785280
  S      2.907788   -0.903544   -3.888403
  S      1.200484    1.880442   -4.411137
  S     -2.917329    0.897244    3.883308
  S     -1.192455   -1.874718    4.415093
  C      0.345051    0.693787   -5.525145
  C     -4.207856   -0.395019    3.643965
  C      1.661352   -1.450824   -5.124251
  C     -2.870249   -2.544963    4.057416
  C      1.176722   -0.420621   -6.120136
  H      0.715688   -1.953755   -4.494150
  H      2.288609   -2.487524   -5.803125
  H      0.539464   -0.963793   -6.932648
  H      2.083270    0.033762   -6.666131
  H     -0.158436    1.491163   -6.550221
  H     -0.635934    0.246552   -4.901867
  C     -4.052158   -1.673988    4.449253
  H     -2.917839   -3.622537    4.696454
  H     -2.899001   -2.816484    2.916365
  H     -3.974563   -1.415281    5.542508
  H     -5.001915   -2.288852    4.326152
  H     -4.264824   -0.619277    2.491216
  H     -5.283184    0.172852    3.966232

 Total Charge           Charge          ....   -2
 Multiplicity           Mult            ....    2
 Number of Electrons    NEL             ....  233
 Basis Dimension        Dim             ....  517

ORBITAL ENERGIES
----------------
                 SPIN UP ORBITALS
  NO   OCC          E(Eh)            E(eV)
   0   1.0000    -196.644754     -5350.9758
   1   1.0000     -88.684291     -2413.2222
   2   1.0000     -88.684172     -2413.2190
   3   1.0000     -88.681502     -2413.1463
   4   1.0000     -88.681458     -2413.1452
   5   1.0000     -88.617638     -2411.4085
   6   1.0000     -88.617596     -2411.4074
   7   1.0000     -88.616438     -2411.3759
   8   1.0000     -88.616421     -2411.3754
   9   1.0000     -22.020533      -599.2092
  10   1.0000     -18.861756      -513.2545
  11   1.0000     -18.527352      -504.1549
  12   1.0000     -18.521586      -503.9980
  13   1.0000     -18.521551      -503.9970
  14   1.0000     -10.058102      -273.6949
  15   1.0000     -10.057661      -273.6829
  16   1.0000     -10.041331      -273.2385
  17   1.0000     -10.040804      -273.2242
  18   1.0000     -10.024212      -272.7727
  19   1.0000     -10.016162      -272.5536
  20   1.0000      -9.998187      -272.0645
  21   1.0000      -9.997465      -272.0449
  22   1.0000      -9.996284      -272.0127
  23   1.0000      -9.995567      -271.9932
  24   1.0000      -7.737680      -210.5530
  25   1.0000      -7.737578      -210.5502
  26   1.0000      -7.735036      -210.4810
  27   1.0000      -7.735001      -210.4801
  28   1.0000      -7.671997      -208.7656
  29   1.0000      -7.671963      -208.7647
  30   1.0000      -7.670864      -208.7348
  31   1.0000      -7.670828      -208.7339
  32   1.0000      -5.703017      -155.1870
  33   1.0000      -5.702912      -155.1841
  34   1.0000      -5.700329      -155.1138
  35   1.0000      -5.700288      -155.1127
  36   1.0000      -5.699020      -155.0782
  37   1.0000      -5.698925      -155.0756
  38   1.0000      -5.696391      -155.0067
  39   1.0000      -5.696353      -155.0057
  40   1.0000      -5.692358      -154.8969
  41   1.0000      -5.692247      -154.8939
  42   1.0000      -5.689734      -154.8255
  43   1.0000      -5.689703      -154.8247
  44   1.0000      -5.636853      -153.3866
  45   1.0000      -5.636833      -153.3860
  46   1.0000      -5.635693      -153.3550
  47   1.0000      -5.635673      -153.3545
  48   1.0000      -5.630419      -153.2115
  49   1.0000      -5.630369      -153.2101
  50   1.0000      -5.630005      -153.2002
  51   1.0000      -5.629970      -153.1993
  52   1.0000      -5.629300      -153.1810
  53   1.0000      -5.629266      -153.1801
  54   1.0000      -5.628839      -153.1685
  55   1.0000      -5.628823      -153.1681
  56   1.0000      -2.414239       -65.6948
  57   1.0000      -1.455578       -39.6083
  58   1.0000      -1.444044       -39.2944
  59   1.0000      -1.442954       -39.2648
  60   1.0000      -0.644874       -17.5479
  61   1.0000      -0.644339       -17.5333
  62   1.0000      -0.622670       -16.9437
  63   1.0000      -0.596492       -16.2314
  64   1.0000      -0.595656       -16.2086
  65   1.0000      -0.573423       -15.6036
  66   1.0000      -0.572190       -15.5701
  67   1.0000      -0.495424       -13.4812
  68   1.0000      -0.493141       -13.4191
  69   1.0000      -0.483103       -13.1459
  70   1.0000      -0.479568       -13.0497
  71   1.0000      -0.418585       -11.3903
  72   1.0000      -0.413531       -11.2528
  73   1.0000      -0.409120       -11.1327
  74   1.0000      -0.401774       -10.9328
  75   1.0000      -0.367437        -9.9985
  76   1.0000      -0.358718        -9.7612
  77   1.0000      -0.284084        -7.7303
  78   1.0000      -0.281343        -7.6557
  79   1.0000      -0.272203        -7.4070
  80   1.0000      -0.262936        -7.1548
  81   1.0000      -0.261376        -7.1124
  82   1.0000      -0.254162        -6.9161
  83   1.0000      -0.236368        -6.4319
  84   1.0000      -0.230848        -6.2817
  85   1.0000      -0.195922        -5.3313
  86   1.0000      -0.190472        -5.1830
  87   1.0000      -0.185113        -5.0372
  88   1.0000      -0.181263        -4.9324
  89   1.0000      -0.180289        -4.9059
  90   1.0000      -0.173919        -4.7326
  91   1.0000      -0.168705        -4.5907
  92   1.0000      -0.155275        -4.2252
  93   1.0000      -0.153887        -4.1875
  94   1.0000      -0.146975        -3.9994
  95   1.0000      -0.142162        -3.8684
  96   1.0000      -0.138373        -3.7653
  97   1.0000      -0.102051        -2.7770
  98   1.0000      -0.098206        -2.6723
  99   1.0000      -0.094775        -2.5790
 100   1.0000      -0.089034        -2.4227
 101   1.0000      -0.084700        -2.3048
 102   1.0000      -0.084293        -2.2937
 103   1.0000      -0.074939        -2.0392
 104   1.0000      -0.054412        -1.4806
 105   1.0000      -0.042876        -1.1667
 106   1.0000      -0.042656        -1.1607
 107   1.0000      -0.040833        -1.1111
 108   1.0000      -0.036436        -0.9915
 109   1.0000      -0.018115        -0.4929
 110   1.0000      -0.009247        -0.2516
 111   1.0000      -0.008023        -0.2183
 112   1.0000       0.001349         0.0367
 113   1.0000       0.005886         0.1602
 114   1.0000       0.011584         0.3152
 115   1.0000       0.028559         0.7771
 116   1.0000       0.054728         1.4892
 117   0.0000       0.165052         4.4913
 118   0.0000       0.178777         4.8648
 119   0.0000       0.182662         4.9705
 120   0.0000       0.187216         5.0944
 121   0.0000       0.205710         5.5977

                 SPIN DOWN ORBITALS
  NO   OCC          E(Eh)            E(eV)
   0   1.0000    -196.644895     -5350.9796
   1   1.0000     -88.684304     -2413.2226
   2   1.0000     -88.684185     -2413.2193
   3   1.0000     -88.681515     -2413.1467
   4   1.0000     -88.681471     -2413.1455
   5   1.0000     -88.617796     -2411.4128
   6   1.0000     -88.617754     -2411.4117
   7   1.0000     -88.616598     -2411.3802
   8   1.0000     -88.616582     -2411.3798
   9   1.0000     -22.005866      -598.8101
  10   1.0000     -18.865345      -513.3521
  11   1.0000     -18.522219      -504.0152
  12   1.0000     -18.506107      -503.5768
  13   1.0000     -18.505412      -503.5579
  14   1.0000     -10.058098      -273.6948
  15   1.0000     -10.057657      -273.6828
  16   1.0000     -10.041327      -273.2384
  17   1.0000     -10.040800      -273.2241
  18   1.0000     -10.024212      -272.7727
  19   1.0000     -10.016162      -272.5536
  20   1.0000      -9.997932      -272.0576
  21   1.0000      -9.997212      -272.0380
  22   1.0000      -9.996029      -272.0058
  23   1.0000      -9.995314      -271.9863
  24   1.0000      -7.737694      -210.5534
  25   1.0000      -7.737592      -210.5506
  26   1.0000      -7.735050      -210.4814
  27   1.0000      -7.735015      -210.4805
  28   1.0000      -7.672144      -208.7696
  29   1.0000      -7.672110      -208.7687
  30   1.0000      -7.671014      -208.7389
  31   1.0000      -7.670977      -208.7379
  32   1.0000      -5.703033      -155.1874
  33   1.0000      -5.702928      -155.1846
  34   1.0000      -5.700345      -155.1143
  35   1.0000      -5.700305      -155.1132
  36   1.0000      -5.699041      -155.0788
  37   1.0000      -5.698945      -155.0762
  38   1.0000      -5.696411      -155.0072
  39   1.0000      -5.696374      -155.0062
  40   1.0000      -5.692374      -154.8974
  41   1.0000      -5.692263      -154.8943
  42   1.0000      -5.689751      -154.8260
  43   1.0000      -5.689720      -154.8251
  44   1.0000      -5.637024      -153.3912
  45   1.0000      -5.637004      -153.3907
  46   1.0000      -5.635865      -153.3597
  47   1.0000      -5.635845      -153.3591
  48   1.0000      -5.630803      -153.2219
  49   1.0000      -5.630751      -153.2205
  50   1.0000      -5.630141      -153.2039
  51   1.0000      -5.630107      -153.2030
  52   1.0000      -5.629694      -153.1918
  53   1.0000      -5.629659      -153.1908
  54   1.0000      -5.628975      -153.1722
  55   1.0000      -5.628959      -153.1718
  56   1.0000      -2.370061       -64.4926
  57   1.0000      -1.436740       -39.0957
  58   1.0000      -1.382654       -37.6239
  59   1.0000      -1.381979       -37.6056
  60   1.0000      -0.644807       -17.5461
  61   1.0000      -0.644276       -17.5317
  62   1.0000      -0.630363       -17.1530
  63   1.0000      -0.596315       -16.2266
  64   1.0000      -0.595465       -16.2034
  65   1.0000      -0.573414       -15.6034
  66   1.0000      -0.572178       -15.5698
  67   1.0000      -0.495451       -13.4819
  68   1.0000      -0.493181       -13.4201
  69   1.0000      -0.483153       -13.1473
  70   1.0000      -0.479647       -13.0519
  71   1.0000      -0.418811       -11.3964
  72   1.0000      -0.413757       -11.2589
  73   1.0000      -0.409109       -11.1324
  74   1.0000      -0.401889       -10.9360
  75   1.0000      -0.367420        -9.9980
  76   1.0000      -0.358701        -9.7607
  77   1.0000      -0.284051        -7.7294
  78   1.0000      -0.281310        -7.6548
  79   1.0000      -0.272189        -7.4066
  80   1.0000      -0.262916        -7.1543
  81   1.0000      -0.261088        -7.1046
  82   1.0000      -0.254065        -6.9135
  83   1.0000      -0.236353        -6.4315
  84   1.0000      -0.230850        -6.2817
  85   1.0000      -0.195082        -5.3085
  86   1.0000      -0.190366        -5.1801
  87   1.0000      -0.183877        -5.0035
  88   1.0000      -0.181196        -4.9306
  89   1.0000      -0.180010        -4.8983
  90   1.0000      -0.173609        -4.7241
  91   1.0000      -0.168640        -4.5889
  92   1.0000      -0.154624        -4.2075
  93   1.0000      -0.153586        -4.1793
  94   1.0000      -0.146749        -3.9932
  95   1.0000      -0.141932        -3.8622
  96   1.0000      -0.138236        -3.7616
  97   1.0000      -0.100521        -2.7353
  98   1.0000      -0.097742        -2.6597
  99   1.0000      -0.094858        -2.5812
 100   1.0000      -0.089005        -2.4220
 101   1.0000      -0.086582        -2.3560
 102   1.0000      -0.083874        -2.2823
 103   1.0000      -0.076276        -2.0756
 104   1.0000      -0.050350        -1.3701
 105   1.0000      -0.043077        -1.1722
 106   1.0000      -0.041806        -1.1376
 107   1.0000      -0.039848        -1.0843
 108   1.0000      -0.036397        -0.9904
 109   1.0000      -0.017210        -0.4683
 110   1.0000      -0.010547        -0.2870
 111   1.0000      -0.007081        -0.1927
 112   1.0000       0.002201         0.0599
 113   1.0000       0.006790         0.1848
 114   1.0000       0.028807         0.7839
 115   1.0000       0.053934         1.4676
 116   0.0000       0.164896         4.4871
 117   0.0000       0.179438         4.8828
 118   0.0000       0.180360         4.9078
 119   0.0000       0.182986         4.9793
 120   0.0000       0.187827         5.1110

MULLIKEN ATOMIC CHARGES AND SPIN POPULATIONS
--------------------------------------------
   0 V :    0.445733    1.199262
   1 S :   -0.249234   -0.024369
   2 S :   -0.245676   -0.023730
   3 S :   -0.249597   -0.024382
   4 S :   -0.245922   -0.023609
   5 O :   -0.503557   -0.139250
   6 C :   -0.121231    0.008881
   7 C :   -0.120188    0.008829
   8 C :   -0.118010    0.008959
   9 C :   -0.118447    0.008938
  10 S :   -0.016564   -0.000124
  11 S :   -0.015942   -0.000155
  12 S :   -0.028816   -0.000182
  13 S :   -0.029348   -0.000206
  14 C :   -0.293064    0.000264
  15 C :   -0.314016    0.000273
  16 C :   -0.292208    0.000248
  17 C :   -0.314022    0.000294
  18 C :   -0.052992    0.000195
  19 H :    0.126056   -0.000109
  20 H :    0.025999   -0.000021
  21 H :    0.047699    0.000056
  22 H :    0.077142    0.000015
  23 H :    0.024872   -0.000018
  24 H :    0.126088   -0.000111
  25 C :   -0.064388    0.000171
  26 H :    0.062760    0.000023
  27 H :    0.136249   -0.000109
  28 H :    0.077394    0.000010
  29 H :    0.045553    0.000045
  30 H :    0.136097   -0.000106
  31 H :    0.061580    0.000019
Sum of atomic charges         :   -2.0000000

LOEWDIN ATOMIC CHARGES AND SPIN POPULATIONS
-------------------------------------------
   0 V :   -0.242192    1.153273
   1 S :    0.091422   -0.016521
   2 S :    0.093748   -0.016037
   3 S :    0.091143   -0.016503
   4 S :    0.093505   -0.015987
   5 O :   -0.348869   -0.124663
   6 C :   -0.553345    0.010028
   7 C :   -0.552873    0.009985
   8 C :   -0.552791    0.009988
   9 C :   -0.553203    0.010003
  10 S :    0.347398   -0.000979
  11 S :    0.347451   -0.000998
  12 S :    0.341789   -0.001023
  13 S :    0.341594   -0.001036
  14 C :   -0.326648    0.000169
  15 C :   -0.317663    0.000168
  16 C :   -0.326546    0.000161
  17 C :   -0.317301    0.000178
  18 C :   -0.220412   -0.000029
  19 H :    0.084075   -0.000050
  20 H :    0.049722   -0.000022
  21 H :    0.058052    0.000025
  22 H :    0.063225    0.000013
  23 H :    0.049253   -0.000020
  24 H :    0.084451   -0.000052
  25 C :   -0.205750   -0.000036
  26 H :    0.057565    0.000006
  27 H :    0.076960   -0.000039
  28 H :    0.058610    0.000011
  29 H :    0.052845    0.000022
  30 H :    0.077301   -0.000039
  31 H :    0.057487    0.000005

  Mayer bond orders larger than 0.100000
B(  0-V ,  1-S ) :   0.7905 B(  0-V ,  2-S ) :   0.7877 B(  0-V ,  3-S ) :   0.7923
B(  0-V ,  4-S ) :   0.7853 B(  0-V ,  5-O ) :   2.1106 B(  1-S ,  8-C ) :   1.1394
B(  2-S ,  6-C ) :   1.1417 B(  3-S ,  9-C ) :   1.1380 B(  4-S ,  7-C ) :   1.1429
B(  6-C ,  7-C ) :   1.4874 B(  6-C , 10-S ) :   0.9538 B(  7-C , 11-S ) :   0.9536
B(  8-C ,  9-C ) :   1.5038 B(  8-C , 13-S ) :   0.9540 B(  9-C , 12-S ) :   0.9540
B( 10-S , 16-C ) :   1.0052 B( 11-S , 14-C ) :   1.0052 B( 12-S , 15-C ) :   1.0069
B( 13-S , 17-C ) :   1.0071 B( 14-C , 18-C ) :   0.8824 B( 14-C , 23-H ) :   0.9336
B( 14-C , 24-H ) :   0.9505 B( 15-C , 25-C ) :   0.8807 B( 15-C , 30-H ) :   0.9623
B( 15-C , 31-H ) :   0.9550 B( 16-C , 18-C ) :   0.8823 B( 16-C , 19-H ) :   0.9507
B( 16-C , 20-H ) :   0.9344 B( 17-C , 25-C ) :   0.8805 B( 17-C , 26-H ) :   0.9556
B( 17-C , 27-H ) :   0.9625 B( 18-C , 21-H ) :   0.9418 B( 18-C , 22-H ) :   0.9591
B( 25-C , 28-H ) :   0.9663 B( 25-C , 29-H ) :   0.9471

FINAL SINGLE POINT ENERGY     -4592.609666070227

DIPOLE MOMENT
-------------
                                X             Y             Z
Electronic contribution:     20.09294      14.68458      11.98493
Nuclear contribution   :    -22.08039     -16.09452     -12.90408
                        -----------------------------------------
Total Dipole Moment    :     -1.98744      -1.40994      -0.91915
                        -----------------------------------------
Magnitude (a.u.)       :      2.60436
Magnitude (Debye)      :      6.61976

Rotational constants in cm-1:     0.012752     0.002548     0.002430
Rotational constants in MHz :   382.303004    76.372715    72.854214

                             ****ORCA TERMINATED NORMALLY****
TOTAL RUN TIME: 0 days 0 hours 27 minutes 35 seconds 475 msec
