                         Program Version 5.0.4 -  RELEASE  -
|  1> ! nofrozencore ReducedPop printbasis
|  2> ! B3LYP TZVP
|  3>
|  4> %basis
|  5> newgto V "CP(PPP)" end
|  6> end
|  7>
|  8> %pal
|  9> nprocs 8
| 10> end
| 11>
| 12> % sym SymThresh 1e-2 end
| 13> * xyz -2 2
| 14> V 0.35050490470379264 0.9923481583636344 0.37115097213517906
| 15> S -1.3078053758340906 0.22223055560423988 2.00582748067731
| 16> S 1.7845525003704117 -0.7915712100152286 1.247602229678089
| 17> S -1.6266235853441264 1.4541410157179595 -1.0032518091859897
| 18> S 1.4843232708495093 0.4634369054734485 -1.7388088894133271
| 19> O 0.935469573293425 2.3879960833497167 0.8904183474601304
| 20> C 3.0661948744312126 -0.9174730875119501 0.03429680698040978
| 21> C 2.9398529373552176 -0.3942034112995592 -1.2141134566446796
| 22> C -2.858336821628872 0.7726887553658108 1.3599396236310615
| 23> C -2.991306239159022 1.2849708382633986 0.10809638054517025
| 24> S 4.538721891197611 -1.8063824623522096 0.578896742975771
| 25> S 4.228677176596677 -0.5356195180679583 -2.4689483510176964
| 26> S -4.586461475578793 1.7977059475602744 -0.5654225719742858
| 27> S -4.26361525837918 0.5574716450403111 2.473945401562107
| 28> C 4.278487116308596 -2.348757174716913 -2.828745797799122
| 29> C -5.482257786730368 0.18988735521969188 -0.7401073293894082
| 30> C 4.522372676680128 -3.338382600720202 -0.45617367859471897
| 31> C -5.230561476624596 -0.782330816015134 1.64526434226869
| 32> C 5.098494621597393 -3.2069500694837343 -1.865808194607832
| 33> H 3.490241153139023 -3.6986443053199305 -0.4855348057804292
| 34> H 5.114246469542186 -4.0631173681895065 0.11255001545125293
| 35> H 5.175338466740679 -4.220287676224163 -2.29642668654144
| 36> H 6.118299054523936 -2.8077430572617335 -1.804109004320153
| 37> H 4.706586133709592 -2.4201425662514144 -3.8340965221121692
| 38> H 3.2430642018620577 -2.6967976925216464 -2.8804513690197484
| 39> C -6.166785488141675 -0.3394995207591143 0.5204545196667786
| 40> H -5.819062607829313 -1.2408305346386197 2.4468505378502714
| 41> H -4.510846230618124 -1.525708247685314 1.2915951832382637
| 42> H -6.854849255243881 0.42406281477586555 0.9041102843927737
| 43> H -6.781925119980304 -1.208967291500926 0.2311190349907688
| 44> H -4.7652507318330235 -0.535282717047573 -1.1347992857950684
| 45> H -6.236491441815668 0.37040045479745815 -1.513231679102633
| 46> *
| 47>
| 48> % eprnmr
| 49> gtensor true
| 50> Nuclei = all H {aiso,adip,aorb,fgrad,rho}
| 51> Nuclei = all V {aiso,adip,aorb,fgrad,rho}
| 52> end
| 53>
| 54>                          ****END OF INPUT****

CARTESIAN COORDINATES (ANGSTROEM)
---------------------------------
  V      0.350948    0.993379    0.371537
  S     -1.307362    0.223262    2.006213
  S      1.784995   -0.790540    1.247988
  S     -1.626181    1.455172   -1.002866
  S      1.484766    0.464468   -1.738423
  O      0.935912    2.389027    0.890804
  C      3.066638   -0.916442    0.034683
  C      2.940296   -0.393172   -1.213728
  C     -2.857894    0.773720    1.360325
  C     -2.990863    1.286002    0.108482
  S      4.539165   -1.805351    0.579283
  S      4.229120   -0.534588   -2.468563
  S     -4.586019    1.798737   -0.565037
  S     -4.263172    0.558503    2.474331
  C      4.278930   -2.347726   -2.828360
  C     -5.481815    0.190919   -0.739722
  C      4.522816   -3.337351   -0.455788
  C     -5.230119   -0.781300    1.645650
  C      5.098938   -3.205919   -1.865422
  H      3.490684   -3.697613   -0.485149
  H      5.114689   -4.062086    0.112936
  H      5.175781   -4.219256   -2.296041
  H      6.118742   -2.806712   -1.803723
  H      4.707029   -2.419111   -3.833711
  H      3.243507   -2.695766   -2.880066
  C     -6.166343   -0.338468    0.520840
  H     -5.818620   -1.239799    2.447236
  H     -4.510403   -1.524677    1.291981
  H     -6.854406    0.425094    0.904496
  H     -6.781482   -1.207936    0.231505
  H     -4.764808   -0.534251   -1.134413
  H     -6.236049    0.371432   -1.512846

 Total Charge           Charge          ....   -2
 Multiplicity           Mult            ....    2
 Number of Electrons    NEL             ....  233
 Basis Dimension        Dim             ....  517

ORBITAL ENERGIES
----------------
                 SPIN UP ORBITALS
  NO   OCC          E(Eh)            E(eV)
   0   1.0000    -196.640672     -5350.8647
   1   1.0000     -88.676989     -2413.0236
   2   1.0000     -88.676947     -2413.0224
   3   1.0000     -88.676249     -2413.0034
   4   1.0000     -88.676202     -2413.0021
   5   1.0000     -88.612168     -2411.2597
   6   1.0000     -88.612047     -2411.2564
   7   1.0000     -88.612043     -2411.2563
   8   1.0000     -88.612028     -2411.2559
   9   1.0000     -22.016410      -599.0970
  10   1.0000     -18.856947      -513.1236
  11   1.0000     -18.523258      -504.0435
  12   1.0000     -18.517454      -503.8855
  13   1.0000     -18.517418      -503.8846
  14   1.0000     -10.016147      -272.5532
  15   1.0000     -10.016132      -272.5528
  16   1.0000     -10.015164      -272.5265
  17   1.0000     -10.015158      -272.5263
  18   1.0000     -10.005449      -272.2621
  19   1.0000     -10.004773      -272.2437
  20   1.0000      -9.991995      -271.8960
  21   1.0000      -9.991865      -271.8925
  22   1.0000      -9.991268      -271.8762
  23   1.0000      -9.991153      -271.8731
  24   1.0000      -7.730553      -210.3591
  25   1.0000      -7.730499      -210.3576
  26   1.0000      -7.729862      -210.3402
  27   1.0000      -7.729828      -210.3393
  28   1.0000      -7.666566      -208.6179
  29   1.0000      -7.666467      -208.6152
  30   1.0000      -7.666404      -208.6135
  31   1.0000      -7.666388      -208.6130
  32   1.0000      -5.695819      -154.9911
  33   1.0000      -5.695762      -154.9896
  34   1.0000      -5.695097      -154.9715
  35   1.0000      -5.695073      -154.9708
  36   1.0000      -5.691882      -154.8840
  37   1.0000      -5.691836      -154.8827
  38   1.0000      -5.691252      -154.8668
  39   1.0000      -5.691214      -154.8658
  40   1.0000      -5.685316      -154.7053
  41   1.0000      -5.685263      -154.7039
  42   1.0000      -5.684599      -154.6858
  43   1.0000      -5.684551      -154.6845
  44   1.0000      -5.631403      -153.2383
  45   1.0000      -5.631302      -153.2355
  46   1.0000      -5.631266      -153.2345
  47   1.0000      -5.631258      -153.2343
  48   1.0000      -5.625001      -153.0641
  49   1.0000      -5.624890      -153.0611
  50   1.0000      -5.624870      -153.0605
  51   1.0000      -5.624856      -153.0601
  52   1.0000      -5.624581      -153.0526
  53   1.0000      -5.624479      -153.0499
  54   1.0000      -5.624359      -153.0466
  55   1.0000      -5.624357      -153.0465
  56   1.0000      -2.409882       -65.5762
  57   1.0000      -1.450931       -39.4818
  58   1.0000      -1.439668       -39.1753
  59   1.0000      -1.438607       -39.1465
  60   1.0000      -0.643571       -17.5125
  61   1.0000      -0.643019       -17.4974
  62   1.0000      -0.617793       -16.8110
  63   1.0000      -0.593802       -16.1582
  64   1.0000      -0.593080       -16.1385
  65   1.0000      -0.575522       -15.6607
  66   1.0000      -0.574972       -15.6458
  67   1.0000      -0.491310       -13.3692
  68   1.0000      -0.489380       -13.3167
  69   1.0000      -0.487423       -13.2635
  70   1.0000      -0.486134       -13.2284
  71   1.0000      -0.423014       -11.5108
  72   1.0000      -0.420187       -11.4339
  73   1.0000      -0.412395       -11.2219
  74   1.0000      -0.407296       -11.0831
  75   1.0000      -0.376272       -10.2389
  76   1.0000      -0.373056       -10.1514
  77   1.0000      -0.293043        -7.9741
  78   1.0000      -0.291885        -7.9426
  79   1.0000      -0.277928        -7.5628
  80   1.0000      -0.276770        -7.5313
  81   1.0000      -0.260328        -7.0839
  82   1.0000      -0.255623        -6.9558
  83   1.0000      -0.242116        -6.5883
  84   1.0000      -0.239015        -6.5039
  85   1.0000      -0.195211        -5.3120
  86   1.0000      -0.192433        -5.2364
  87   1.0000      -0.192020        -5.2251
  88   1.0000      -0.191129        -5.2009
  89   1.0000      -0.185078        -5.0362
  90   1.0000      -0.184014        -5.0073
  91   1.0000      -0.180777        -4.9192
  92   1.0000      -0.150780        -4.1029
  93   1.0000      -0.149760        -4.0752
  94   1.0000      -0.143455        -3.9036
  95   1.0000      -0.143405        -3.9022
  96   1.0000      -0.141861        -3.8602
  97   1.0000      -0.096865        -2.6358
  98   1.0000      -0.096299        -2.6204
  99   1.0000      -0.089176        -2.4266
 100   1.0000      -0.083230        -2.2648
 101   1.0000      -0.081725        -2.2238
 102   1.0000      -0.079164        -2.1542
 103   1.0000      -0.069262        -1.8847
 104   1.0000      -0.049987        -1.3602
 105   1.0000      -0.038212        -1.0398
 106   1.0000      -0.037981        -1.0335
 107   1.0000      -0.035750        -0.9728
 108   1.0000      -0.031729        -0.8634
 109   1.0000      -0.013221        -0.3598
 110   1.0000      -0.004613        -0.1255
 111   1.0000      -0.003281        -0.0893
 112   1.0000       0.006152         0.1674
 113   1.0000       0.011395         0.3101
 114   1.0000       0.015883         0.4322
 115   1.0000       0.033801         0.9198
 116   1.0000       0.059685         1.6241
 117   0.0000       0.188007         5.1159
 118   0.0000       0.195361         5.3160
 119   0.0000       0.196019         5.3340
 120   0.0000       0.196776         5.3545
 121   0.0000       0.210847         5.7374

                 SPIN DOWN ORBITALS
  NO   OCC          E(Eh)            E(eV)
   0   1.0000    -196.640812     -5350.8685
   1   1.0000     -88.677003     -2413.0239
   2   1.0000     -88.676961     -2413.0228
   3   1.0000     -88.676262     -2413.0038
   4   1.0000     -88.676215     -2413.0025
   5   1.0000     -88.612324     -2411.2639
   6   1.0000     -88.612203     -2411.2606
   7   1.0000     -88.612202     -2411.2606
   8   1.0000     -88.612187     -2411.2602
   9   1.0000     -22.001708      -598.6969
  10   1.0000     -18.860548      -513.2216
  11   1.0000     -18.518103      -503.9032
  12   1.0000     -18.501935      -503.4633
  13   1.0000     -18.501253      -503.4447
  14   1.0000     -10.016141      -272.5530
  15   1.0000     -10.016126      -272.5527
  16   1.0000     -10.015163      -272.5264
  17   1.0000     -10.015157      -272.5263
  18   1.0000     -10.005450      -272.2621
  19   1.0000     -10.004772      -272.2437
  20   1.0000      -9.991744      -271.8892
  21   1.0000      -9.991614      -271.8856
  22   1.0000      -9.991019      -271.8695
  23   1.0000      -9.990904      -271.8663
  24   1.0000      -7.730568      -210.3595
  25   1.0000      -7.730513      -210.3580
  26   1.0000      -7.729876      -210.3406
  27   1.0000      -7.729842      -210.3397
  28   1.0000      -7.666711      -208.6218
  29   1.0000      -7.666612      -208.6191
  30   1.0000      -7.666552      -208.6175
  31   1.0000      -7.666536      -208.6170
  32   1.0000      -5.695837      -154.9916
  33   1.0000      -5.695779      -154.9900
  34   1.0000      -5.695114      -154.9719
  35   1.0000      -5.695090      -154.9713
  36   1.0000      -5.691903      -154.8846
  37   1.0000      -5.691857      -154.8833
  38   1.0000      -5.691272      -154.8674
  39   1.0000      -5.691234      -154.8664
  40   1.0000      -5.685334      -154.7058
  41   1.0000      -5.685282      -154.7044
  42   1.0000      -5.684615      -154.6862
  43   1.0000      -5.684568      -154.6849
  44   1.0000      -5.631573      -153.2429
  45   1.0000      -5.631472      -153.2402
  46   1.0000      -5.631434      -153.2391
  47   1.0000      -5.631426      -153.2389
  48   1.0000      -5.625381      -153.0744
  49   1.0000      -5.625274      -153.0715
  50   1.0000      -5.625271      -153.0714
  51   1.0000      -5.625258      -153.0711
  52   1.0000      -5.624710      -153.0561
  53   1.0000      -5.624606      -153.0533
  54   1.0000      -5.624483      -153.0500
  55   1.0000      -5.624482      -153.0499
  56   1.0000      -2.365610       -64.3715
  57   1.0000      -1.432005       -38.9668
  58   1.0000      -1.378195       -37.5026
  59   1.0000      -1.377521       -37.4843
  60   1.0000      -0.643520       -17.5111
  61   1.0000      -0.642972       -17.4962
  62   1.0000      -0.625545       -17.0219
  63   1.0000      -0.593612       -16.1530
  64   1.0000      -0.592881       -16.1331
  65   1.0000      -0.575515       -15.6606
  66   1.0000      -0.574971       -15.6457
  67   1.0000      -0.491336       -13.3699
  68   1.0000      -0.489419       -13.3178
  69   1.0000      -0.487430       -13.2636
  70   1.0000      -0.486156       -13.2290
  71   1.0000      -0.423256       -11.5174
  72   1.0000      -0.420496       -11.4423
  73   1.0000      -0.412406       -11.2221
  74   1.0000      -0.407390       -11.0856
  75   1.0000      -0.376227       -10.2377
  76   1.0000      -0.373079       -10.1520
  77   1.0000      -0.293023        -7.9736
  78   1.0000      -0.291871        -7.9422
  79   1.0000      -0.277905        -7.5622
  80   1.0000      -0.276757        -7.5309
  81   1.0000      -0.260136        -7.0787
  82   1.0000      -0.255588        -6.9549
  83   1.0000      -0.242014        -6.5855
  84   1.0000      -0.238940        -6.5019
  85   1.0000      -0.194786        -5.3004
  86   1.0000      -0.192389        -5.2352
  87   1.0000      -0.191964        -5.2236
  88   1.0000      -0.191105        -5.2002
  89   1.0000      -0.185017        -5.0346
  90   1.0000      -0.183968        -5.0060
  91   1.0000      -0.178678        -4.8621
  92   1.0000      -0.150114        -4.0848
  93   1.0000      -0.149465        -4.0671
  94   1.0000      -0.143220        -3.8972
  95   1.0000      -0.143129        -3.8947
  96   1.0000      -0.141786        -3.8582
  97   1.0000      -0.095822        -2.6074
  98   1.0000      -0.095362        -2.5949
  99   1.0000      -0.089285        -2.4296
 100   1.0000      -0.083226        -2.2647
 101   1.0000      -0.081803        -2.2260
 102   1.0000      -0.080560        -2.1922
 103   1.0000      -0.070607        -1.9213
 104   1.0000      -0.045853        -1.2477
 105   1.0000      -0.038269        -1.0414
 106   1.0000      -0.037402        -1.0178
 107   1.0000      -0.034701        -0.9443
 108   1.0000      -0.031660        -0.8615
 109   1.0000      -0.012335        -0.3356
 110   1.0000      -0.005750        -0.1565
 111   1.0000      -0.002509        -0.0683
 112   1.0000       0.007121         0.1938
 113   1.0000       0.012227         0.3327
 114   1.0000       0.034103         0.9280
 115   1.0000       0.058571         1.5938
 116   0.0000       0.185567         5.0495
 117   0.0000       0.189307         5.1513
 118   0.0000       0.195988         5.3331
 119   0.0000       0.196118         5.3367
 120   0.0000       0.197068         5.3625

MULLIKEN ATOMIC CHARGES AND SPIN POPULATIONS
--------------------------------------------
   0 V :    0.448379    1.200098
   1 S :   -0.252445   -0.022712
   2 S :   -0.255582   -0.025159
   3 S :   -0.253107   -0.022624
   4 S :   -0.255870   -0.025013
   5 O :   -0.507952   -0.139798
   6 C :   -0.114458    0.008998
   7 C :   -0.112945    0.009136
   8 C :   -0.118038    0.008342
   9 C :   -0.117953    0.008407
  10 S :   -0.042685   -0.000422
  11 S :   -0.042622   -0.000463
  12 S :   -0.047088   -0.000033
  13 S :   -0.047100   -0.000065
  14 C :   -0.339022    0.000587
  15 C :   -0.337008    0.000116
  16 C :   -0.338445    0.000552
  17 C :   -0.336997    0.000131
  18 C :   -0.082537    0.000021
  19 H :    0.144612   -0.000132
  20 H :    0.101646    0.000084
  21 H :    0.043531    0.000023
  22 H :    0.079092   -0.000017
  23 H :    0.101647    0.000088
  24 H :    0.144855   -0.000137
  25 C :   -0.086027    0.000100
  26 H :    0.101699   -0.000020
  27 H :    0.148769   -0.000092
  28 H :    0.077767    0.000055
  29 H :    0.045223    0.000057
  30 H :    0.148950   -0.000089
  31 H :    0.101707   -0.000021
Sum of atomic charges         :   -2.0000000

LOEWDIN ATOMIC CHARGES AND SPIN POPULATIONS
-------------------------------------------
   0 V :   -0.239399    1.154296
   1 S :    0.088672   -0.015533
   2 S :    0.086160   -0.016817
   3 S :    0.088102   -0.015462
   4 S :    0.085886   -0.016753
   5 O :   -0.353241   -0.125269
   6 C :   -0.552597    0.009717
   7 C :   -0.551938    0.009803
   8 C :   -0.552742    0.009796
   9 C :   -0.552906    0.009918
  10 S :    0.337910   -0.001140
  11 S :    0.337734   -0.001164
  12 S :    0.333818   -0.000996
  13 S :    0.333811   -0.001012
  14 C :   -0.294341    0.000287
  15 C :   -0.292717    0.000073
  16 C :   -0.294445    0.000268
  17 C :   -0.292810    0.000077
  18 C :   -0.185302   -0.000064
  19 H :    0.065302   -0.000027
  20 H :    0.047389    0.000041
  21 H :    0.046694    0.000025
  22 H :    0.053855   -0.000001
  23 H :    0.047396    0.000044
  24 H :    0.065438   -0.000028
  25 C :   -0.184822   -0.000008
  26 H :    0.047201   -0.000022
  27 H :    0.066976   -0.000031
  28 H :    0.053459    0.000026
  29 H :    0.047160    0.000009
  30 H :    0.067093   -0.000030
  31 H :    0.047200   -0.000022

  Mayer bond orders larger than 0.100000
B(  0-V ,  1-S ) :   0.7876 B(  0-V ,  2-S ) :   0.7916 B(  0-V ,  3-S ) :   0.7894
B(  0-V ,  4-S ) :   0.7888 B(  0-V ,  5-O ) :   2.1069 B(  1-S ,  8-C ) :   1.1417
B(  2-S ,  6-C ) :   1.1303 B(  3-S ,  9-C ) :   1.1410 B(  4-S ,  7-C ) :   1.1319
B(  6-C ,  7-C ) :   1.5167 B(  6-C , 10-S ) :   0.9558 B(  7-C , 11-S ) :   0.9554
B(  8-C ,  9-C ) :   1.5220 B(  8-C , 13-S ) :   0.9511 B(  9-C , 12-S ) :   0.9512
B( 10-S , 16-C ) :   1.0059 B( 11-S , 14-C ) :   1.0056 B( 12-S , 15-C ) :   1.0036
B( 13-S , 17-C ) :   1.0041 B( 14-C , 18-C ) :   0.8778 B( 14-C , 23-H ) :   0.9703
B( 14-C , 24-H ) :   0.9752 B( 15-C , 25-C ) :   0.8787 B( 15-C , 30-H ) :   0.9749
B( 15-C , 31-H ) :   0.9698 B( 16-C , 18-C ) :   0.8777 B( 16-C , 19-H ) :   0.9752
B( 16-C , 20-H ) :   0.9702 B( 17-C , 25-C ) :   0.8788 B( 17-C , 26-H ) :   0.9697
B( 17-C , 27-H ) :   0.9748 B( 18-C , 21-H ) :   0.9520 B( 18-C , 22-H ) :   0.9733
B( 25-C , 28-H ) :   0.9739 B( 25-C , 29-H ) :   0.9530

FINAL SINGLE POINT ENERGY     -4592.724171402038

DIPOLE MOMENT
-------------
                                X             Y             Z
Electronic contribution:      7.42812      23.98485       9.07731
Nuclear contribution   :     -8.29161     -26.74824     -10.12406
                        -----------------------------------------
Total Dipole Moment    :     -0.86349      -2.76339      -1.04675
                        -----------------------------------------
Magnitude (a.u.)       :      3.07857
Magnitude (Debye)      :      7.82511

Rotational constants in cm-1:     0.012756     0.002548     0.002431
Rotational constants in MHz :   382.412125    76.372534    72.877118

                             ****ORCA TERMINATED NORMALLY****
TOTAL RUN TIME: 0 days 0 hours 27 minutes 33 seconds 481 msec
