                         Program Version 5.0.4 -  RELEASE  -
|  1> ! nofrozencore ReducedPop printbasis
|  2> ! B3LYP TZVP
|  3>
|  4> %basis
|  5> newgto V "CP(PPP)" end
|  6> end
|  7>
|  8> %pal
|  9> nprocs 8
| 10> end
| 11>
| 12> % sym SymThresh 1e-2 end
| 13> * xyz -2 2
| 14> V -0.3622738109351627 -0.662378124180551 0.8265397650062388
| 15> S 1.4362358335262364 -1.840721375373517 -0.1780412634734563
| 16> S 1.4134725201822356 0.933369048923607 1.6756548781912466
| 17> S -1.6421941552987809 -1.261562475609701 -1.0762661494486605
| 18> S -1.6915382435482496 1.4960592368960588 0.795704245917845
| 19> O -0.8783050414820365 -1.3784509092966624 2.1658569081468526
| 20> C 0.5869648453552161 2.4580672554264753 2.010168450413617
| 21> C -0.6991770988892124 2.691727533834236 1.641839822164917
| 22> C 0.5571137418679866 -2.9136785178343643 -1.294284339132014
| 23> C -0.729715288369709 -2.6718657592221904 -1.6702913018586139
| 24> S 1.538655128912101 3.6058081481660342 3.047057198749626
| 25> S -1.6006251742952662 4.180149251039439 2.1474458533657304
| 26> S -1.525959411966074 -3.5551482240750123 -3.0303862723411097
| 27> S 1.5968312245376313 -4.1421995012472035 -2.1171523549057762
| 28> C -0.6980753586168946 5.394794854217945 1.112100851768166
| 29> C -0.6105200154424348 -3.1779447091465847 -4.611669114797852
| 30> C 1.7508163347941992 4.946088572219013 1.8136541894537914
| 31> C 1.8293391942246189 -3.6374654103795945 -3.897823878965754
| 32> C 0.5772635050750403 5.92248774648368 1.7658925402838486
| 33> H 1.9061218371799655 4.461066330348625 0.8453143589455516
| 34> H 2.6706081597684816 5.485049834511233 2.0753915805385517
| 35> H 0.9009127471600292 6.824624662522882 1.2145520152685996
| 36> H 0.34197080862214246 6.241002370718614 2.7907760038256333
| 37> H -1.3854907819719007 6.227373465944907 0.916177624971387
| 38> H -0.48413811614703356 4.900777994143372 0.1599497373323052
| 39> C 0.7075786561260826 -3.899778809284901 -4.907200270123002
| 40> H 2.7166086309880213 -4.218733314382432 -4.18271125830486
| 41> H 2.111022578737231 -2.5782868920486828 -3.9077203287258873
| 42> H 0.5300378003729572 -4.982636430258801 -4.998045862741422
| 43> H 1.0631746164565432 -3.548055533053708 -5.89532209765433
| 44> H -0.4698945531363487 -2.092065261410814 -4.662268157014662
| 45> H -1.352938316677459 -3.451879714504765 -5.3734031338600925
| 46> *
| 47>
| 48> % eprnmr
| 49> gtensor true
| 50> Nuclei = all H {aiso,adip,aorb,fgrad,rho}
| 51> Nuclei = all V {aiso,adip,aorb,fgrad,rho}
| 52> end
| 53>
| 54>                          ****END OF INPUT****

CARTESIAN COORDINATES (ANGSTROEM)
---------------------------------
  V     -0.362653   -0.662935    0.827517
  S      1.435857   -1.841278   -0.177064
  S      1.413093    0.932813    1.676632
  S     -1.642573   -1.262119   -1.075289
  S     -1.691917    1.495503    0.796682
  O     -0.878684   -1.379007    2.166834
  C      0.586586    2.457511    2.011146
  C     -0.699556    2.691171    1.642817
  C      0.556735   -2.914235   -1.293307
  C     -0.730095   -2.672422   -1.669314
  S      1.538276    3.605252    3.048035
  S     -1.601004    4.179593    2.148423
  S     -1.526339   -3.555705   -3.029409
  S      1.596452   -4.142756   -2.116175
  C     -0.698455    5.394238    1.113078
  C     -0.610899   -3.178501   -4.610692
  C      1.750437    4.945532    1.814632
  C      1.828960   -3.638022   -3.896846
  C      0.576884    5.921931    1.766870
  H      1.905743    4.460510    0.846292
  H      2.670229    5.484493    2.076369
  H      0.900534    6.824068    1.215530
  H      0.341592    6.240446    2.791754
  H     -1.385870    6.226817    0.917155
  H     -0.484517    4.900222    0.160927
  C      0.707199   -3.900335   -4.906223
  H      2.716229   -4.219290   -4.181734
  H      2.110643   -2.578843   -3.906743
  H      0.529659   -4.983193   -4.997068
  H      1.062795   -3.548612   -5.894345
  H     -0.470274   -2.092622   -4.661291
  H     -1.353318   -3.452436   -5.372426

 Total Charge           Charge          ....   -2
 Multiplicity           Mult            ....    2
 Number of Electrons    NEL             ....  233
 Basis Dimension        Dim             ....  517

ORBITAL ENERGIES
----------------
                 SPIN UP ORBITALS
  NO   OCC          E(Eh)            E(eV)
   0   1.0000    -196.640446     -5350.8586
   1   1.0000     -88.680755     -2413.1260
   2   1.0000     -88.680666     -2413.1236
   3   1.0000     -88.673173     -2412.9197
   4   1.0000     -88.672624     -2412.9048
   5   1.0000     -88.618388     -2411.4289
   6   1.0000     -88.618247     -2411.4251
   7   1.0000     -88.607435     -2411.1309
   8   1.0000     -88.607269     -2411.1264
   9   1.0000     -22.016196      -599.0912
  10   1.0000     -18.856208      -513.1035
  11   1.0000     -18.523022      -504.0371
  12   1.0000     -18.517234      -503.8795
  13   1.0000     -18.517216      -503.8791
  14   1.0000     -10.022383      -272.7229
  15   1.0000     -10.022346      -272.7219
  16   1.0000     -10.012992      -272.4674
  17   1.0000     -10.010688      -272.4047
  18   1.0000     -10.010444      -272.3980
  19   1.0000      -9.999340      -272.0959
  20   1.0000      -9.999146      -272.0906
  21   1.0000      -9.998628      -272.0765
  22   1.0000      -9.987334      -271.7692
  23   1.0000      -9.986599      -271.7492
  24   1.0000      -7.733903      -210.4502
  25   1.0000      -7.733822      -210.4480
  26   1.0000      -7.727019      -210.2629
  27   1.0000      -7.726566      -210.2505
  28   1.0000      -7.673050      -208.7943
  29   1.0000      -7.672946      -208.7915
  30   1.0000      -7.661394      -208.4771
  31   1.0000      -7.661285      -208.4742
  32   1.0000      -5.699318      -155.0863
  33   1.0000      -5.699239      -155.0842
  34   1.0000      -5.695057      -154.9704
  35   1.0000      -5.694975      -154.9682
  36   1.0000      -5.692117      -154.8904
  37   1.0000      -5.691656      -154.8778
  38   1.0000      -5.688734      -154.7983
  39   1.0000      -5.688653      -154.7961
  40   1.0000      -5.688603      -154.7948
  41   1.0000      -5.688130      -154.7819
  42   1.0000      -5.681668      -154.6061
  43   1.0000      -5.681219      -154.5938
  44   1.0000      -5.637975      -153.4171
  45   1.0000      -5.637848      -153.4137
  46   1.0000      -5.631435      -153.2391
  47   1.0000      -5.631316      -153.2359
  48   1.0000      -5.630919      -153.2251
  49   1.0000      -5.630829      -153.2226
  50   1.0000      -5.626276      -153.0987
  51   1.0000      -5.626145      -153.0952
  52   1.0000      -5.619975      -152.9273
  53   1.0000      -5.619874      -152.9245
  54   1.0000      -5.619299      -152.9089
  55   1.0000      -5.619214      -152.9066
  56   1.0000      -2.409983       -65.5790
  57   1.0000      -1.450627       -39.4736
  58   1.0000      -1.439929       -39.1825
  59   1.0000      -1.439002       -39.1572
  60   1.0000      -0.643398       -17.5078
  61   1.0000      -0.642601       -17.4861
  62   1.0000      -0.616894       -16.7865
  63   1.0000      -0.599103       -16.3024
  64   1.0000      -0.586517       -15.9599
  65   1.0000      -0.575027       -15.6473
  66   1.0000      -0.574750       -15.6397
  67   1.0000      -0.495218       -13.4756
  68   1.0000      -0.492534       -13.4025
  69   1.0000      -0.484495       -13.1838
  70   1.0000      -0.479598       -13.0505
  71   1.0000      -0.427505       -11.6330
  72   1.0000      -0.417044       -11.3483
  73   1.0000      -0.415096       -11.2953
  74   1.0000      -0.402411       -10.9502
  75   1.0000      -0.377049       -10.2600
  76   1.0000      -0.372923       -10.1477
  77   1.0000      -0.299946        -8.1620
  78   1.0000      -0.286275        -7.7899
  79   1.0000      -0.278056        -7.5663
  80   1.0000      -0.274077        -7.4580
  81   1.0000      -0.263924        -7.1817
  82   1.0000      -0.254582        -6.9275
  83   1.0000      -0.245996        -6.6939
  84   1.0000      -0.232129        -6.3165
  85   1.0000      -0.199807        -5.4370
  86   1.0000      -0.192953        -5.2505
  87   1.0000      -0.191126        -5.2008
  88   1.0000      -0.189151        -5.1471
  89   1.0000      -0.188316        -5.1243
  90   1.0000      -0.182229        -4.9587
  91   1.0000      -0.177419        -4.8278
  92   1.0000      -0.149752        -4.0750
  93   1.0000      -0.149525        -4.0688
  94   1.0000      -0.145743        -3.9659
  95   1.0000      -0.142497        -3.8775
  96   1.0000      -0.138495        -3.7687
  97   1.0000      -0.097013        -2.6399
  98   1.0000      -0.095498        -2.5986
  99   1.0000      -0.088348        -2.4041
 100   1.0000      -0.082688        -2.2501
 101   1.0000      -0.082152        -2.2355
 102   1.0000      -0.075725        -2.0606
 103   1.0000      -0.068667        -1.8685
 104   1.0000      -0.051815        -1.4100
 105   1.0000      -0.045904        -1.2491
 106   1.0000      -0.037075        -1.0089
 107   1.0000      -0.035307        -0.9607
 108   1.0000      -0.026428        -0.7191
 109   1.0000      -0.012439        -0.3385
 110   1.0000      -0.006789        -0.1847
 111   1.0000      -0.004056        -0.1104
 112   1.0000       0.004961         0.1350
 113   1.0000       0.015449         0.4204
 114   1.0000       0.017034         0.4635
 115   1.0000       0.030512         0.8303
 116   1.0000       0.060960         1.6588
 117   0.0000       0.178330         4.8526
 118   0.0000       0.191270         5.2047
 119   0.0000       0.197959         5.3867
 120   0.0000       0.199874         5.4388
 121   0.0000       0.207022         5.6334

                 SPIN DOWN ORBITALS
  NO   OCC          E(Eh)            E(eV)
   0   1.0000    -196.640582     -5350.8623
   1   1.0000     -88.680760     -2413.1262
   2   1.0000     -88.680671     -2413.1237
   3   1.0000     -88.673191     -2412.9202
   4   1.0000     -88.672641     -2412.9052
   5   1.0000     -88.618551     -2411.4334
   6   1.0000     -88.618411     -2411.4296
   7   1.0000     -88.607595     -2411.1352
   8   1.0000     -88.607429     -2411.1307
   9   1.0000     -22.001473      -598.6905
  10   1.0000     -18.859884      -513.2035
  11   1.0000     -18.517834      -503.8959
  12   1.0000     -18.501590      -503.4539
  13   1.0000     -18.501145      -503.4418
  14   1.0000     -10.022372      -272.7226
  15   1.0000     -10.022335      -272.7216
  16   1.0000     -10.012991      -272.4673
  17   1.0000     -10.010687      -272.4047
  18   1.0000     -10.010443      -272.3980
  19   1.0000      -9.999147      -272.0906
  20   1.0000      -9.998969      -272.0858
  21   1.0000      -9.998260      -272.0665
  22   1.0000      -9.987169      -271.7647
  23   1.0000      -9.986435      -271.7447
  24   1.0000      -7.733909      -210.4503
  25   1.0000      -7.733827      -210.4481
  26   1.0000      -7.727037      -210.2634
  27   1.0000      -7.726583      -210.2510
  28   1.0000      -7.673198      -208.7983
  29   1.0000      -7.673094      -208.7955
  30   1.0000      -7.661547      -208.4813
  31   1.0000      -7.661437      -208.4783
  32   1.0000      -5.699327      -155.0866
  33   1.0000      -5.699248      -155.0844
  34   1.0000      -5.695067      -154.9707
  35   1.0000      -5.694985      -154.9684
  36   1.0000      -5.692138      -154.8909
  37   1.0000      -5.691676      -154.8784
  38   1.0000      -5.688739      -154.7984
  39   1.0000      -5.688656      -154.7962
  40   1.0000      -5.688626      -154.7954
  41   1.0000      -5.688152      -154.7825
  42   1.0000      -5.681695      -154.6068
  43   1.0000      -5.681245      -154.5945
  44   1.0000      -5.638165      -153.4223
  45   1.0000      -5.638037      -153.4188
  46   1.0000      -5.631813      -153.2494
  47   1.0000      -5.631695      -153.2462
  48   1.0000      -5.631070      -153.2292
  49   1.0000      -5.630980      -153.2268
  50   1.0000      -5.626433      -153.1030
  51   1.0000      -5.626302      -153.0995
  52   1.0000      -5.620391      -152.9386
  53   1.0000      -5.620287      -152.9358
  54   1.0000      -5.619422      -152.9123
  55   1.0000      -5.619337      -152.9099
  56   1.0000      -2.365633       -64.3722
  57   1.0000      -1.431559       -38.9547
  58   1.0000      -1.378181       -37.5022
  59   1.0000      -1.378105       -37.5001
  60   1.0000      -0.643298       -17.5050
  61   1.0000      -0.642588       -17.4857
  62   1.0000      -0.624852       -17.0031
  63   1.0000      -0.598774       -16.2935
  64   1.0000      -0.586439       -15.9578
  65   1.0000      -0.574955       -15.6453
  66   1.0000      -0.574783       -15.6406
  67   1.0000      -0.495116       -13.4728
  68   1.0000      -0.492366       -13.3980
  69   1.0000      -0.484627       -13.1874
  70   1.0000      -0.479761       -13.0550
  71   1.0000      -0.427683       -11.6378
  72   1.0000      -0.417000       -11.3471
  73   1.0000      -0.415454       -11.3051
  74   1.0000      -0.402562       -10.9543
  75   1.0000      -0.376990       -10.2584
  76   1.0000      -0.372989       -10.1495
  77   1.0000      -0.299902        -8.1608
  78   1.0000      -0.286273        -7.7899
  79   1.0000      -0.278010        -7.5650
  80   1.0000      -0.274085        -7.4582
  81   1.0000      -0.263584        -7.1725
  82   1.0000      -0.254597        -6.9279
  83   1.0000      -0.245922        -6.6919
  84   1.0000      -0.232080        -6.3152
  85   1.0000      -0.199411        -5.4263
  86   1.0000      -0.192853        -5.2478
  87   1.0000      -0.191118        -5.2006
  88   1.0000      -0.188864        -5.1392
  89   1.0000      -0.188206        -5.1213
  90   1.0000      -0.180600        -4.9144
  91   1.0000      -0.176908        -4.8139
  92   1.0000      -0.149172        -4.0592
  93   1.0000      -0.149095        -4.0571
  94   1.0000      -0.145428        -3.9573
  95   1.0000      -0.142326        -3.8729
  96   1.0000      -0.138412        -3.7664
  97   1.0000      -0.095644        -2.6026
  98   1.0000      -0.094992        -2.5849
  99   1.0000      -0.088293        -2.4026
 100   1.0000      -0.082883        -2.2554
 101   1.0000      -0.082654        -2.2491
 102   1.0000      -0.076630        -2.0852
 103   1.0000      -0.069811        -1.8997
 104   1.0000      -0.049135        -1.3370
 105   1.0000      -0.045070        -1.2264
 106   1.0000      -0.036524        -0.9939
 107   1.0000      -0.034450        -0.9374
 108   1.0000      -0.026309        -0.7159
 109   1.0000      -0.010255        -0.2790
 110   1.0000      -0.006871        -0.1870
 111   1.0000      -0.003951        -0.1075
 112   1.0000       0.004933         0.1342
 113   1.0000       0.016704         0.4545
 114   1.0000       0.030603         0.8328
 115   1.0000       0.059944         1.6312
 116   0.0000       0.179696         4.8898
 117   0.0000       0.184938         5.0324
 118   0.0000       0.191515         5.2114
 119   0.0000       0.198631         5.4050
 120   0.0000       0.200334         5.4514

MULLIKEN ATOMIC CHARGES AND SPIN POPULATIONS
--------------------------------------------
   0 V :    0.452607    1.202994
   1 S :   -0.233338   -0.026849
   2 S :   -0.276138   -0.023332
   3 S :   -0.233371   -0.026865
   4 S :   -0.276925   -0.023500
   5 O :   -0.507900   -0.142325
   6 C :   -0.114827    0.005439
   7 C :   -0.112413    0.005422
   8 C :   -0.116534    0.013895
   9 C :   -0.116272    0.013661
  10 S :   -0.045934   -0.000967
  11 S :   -0.046069   -0.000920
  12 S :   -0.048019    0.000861
  13 S :   -0.047792    0.000786
  14 C :   -0.350472    0.000131
  15 C :   -0.321251    0.000603
  16 C :   -0.350926    0.000131
  17 C :   -0.321534    0.000650
  18 C :   -0.083853    0.000065
  19 H :    0.155005   -0.000117
  20 H :    0.103470   -0.000020
  21 H :    0.037230    0.000001
  22 H :    0.083651    0.000021
  23 H :    0.103189   -0.000021
  24 H :    0.154882   -0.000113
  25 C :   -0.085367    0.000169
  26 H :    0.098697    0.000061
  27 H :    0.137942   -0.000069
  28 H :    0.073733    0.000027
  29 H :    0.052000    0.000180
  30 H :    0.137793   -0.000059
  31 H :    0.098739    0.000057
Sum of atomic charges         :   -2.0000000

LOEWDIN ATOMIC CHARGES AND SPIN POPULATIONS
-------------------------------------------
   0 V :   -0.240561    1.156109
   1 S :    0.113529   -0.016309
   2 S :    0.061189   -0.017541
   3 S :    0.113711   -0.016281
   4 S :    0.060021   -0.017685
   5 O :   -0.355927   -0.127746
   6 C :   -0.551368    0.006550
   7 C :   -0.551990    0.006481
   8 C :   -0.545213    0.014294
   9 C :   -0.545822    0.014250
  10 S :    0.333636   -0.001652
  11 S :    0.334789   -0.001610
  12 S :    0.332375    0.000031
  13 S :    0.332226   -0.000015
  14 C :   -0.294415    0.000051
  15 C :   -0.294303    0.000475
  16 C :   -0.294457    0.000051
  17 C :   -0.294353    0.000502
  18 C :   -0.191155   -0.000063
  19 H :    0.068837   -0.000056
  20 H :    0.045001   -0.000029
  21 H :    0.043096   -0.000015
  22 H :    0.053787    0.000002
  23 H :    0.044941   -0.000028
  24 H :    0.068754   -0.000054
  25 C :   -0.179767   -0.000006
  26 H :    0.050624    0.000062
  27 H :    0.063317    0.000015
  28 H :    0.053796    0.000021
  29 H :    0.051721    0.000119
  30 H :    0.063346    0.000018
  31 H :    0.050636    0.000059

  Mayer bond orders larger than 0.100000
B(  0-V ,  1-S ) :   0.8342 B(  0-V ,  2-S ) :   0.7399 B(  0-V ,  3-S ) :   0.8374
B(  0-V ,  4-S ) :   0.7378 B(  0-V ,  5-O ) :   2.1041 B(  1-S ,  8-C ) :   1.1207
B(  2-S ,  6-C ) :   1.1483 B(  3-S ,  9-C ) :   1.1183 B(  4-S ,  7-C ) :   1.1475
B(  6-C ,  7-C ) :   1.4942 B(  6-C , 10-S ) :   0.9111 B(  7-C , 11-S ) :   0.9112
B(  8-C ,  9-C ) :   1.5464 B(  8-C , 13-S ) :   0.9850 B(  9-C , 12-S ) :   0.9851
B( 10-S , 16-C ) :   1.0052 B( 11-S , 14-C ) :   1.0040 B( 12-S , 15-C ) :   1.0053
B( 13-S , 17-C ) :   1.0061 B( 14-C , 18-C ) :   0.8683 B( 14-C , 23-H ) :   0.9658
B( 14-C , 24-H ) :   0.9809 B( 15-C , 25-C ) :   0.8871 B( 15-C , 30-H ) :   0.9702
B( 15-C , 31-H ) :   0.9723 B( 16-C , 18-C ) :   0.8679 B( 16-C , 19-H ) :   0.9810
B( 16-C , 20-H ) :   0.9656 B( 17-C , 25-C ) :   0.8866 B( 17-C , 26-H ) :   0.9723
B( 17-C , 27-H ) :   0.9703 B( 18-C , 21-H ) :   0.9459 B( 18-C , 22-H ) :   0.9748
B( 25-C , 28-H ) :   0.9728 B( 25-C , 29-H ) :   0.9585

FINAL SINGLE POINT ENERGY     -4592.708900560895

DIPOLE MOMENT
-------------
                                X             Y             Z
Electronic contribution:     -8.68212     -14.27529      20.84869
Nuclear contribution   :      9.69285      15.50344     -23.53777
                        -----------------------------------------
Total Dipole Moment    :      1.01072       1.22815      -2.68908
                        -----------------------------------------
Magnitude (a.u.)       :      3.12427
Magnitude (Debye)      :      7.94127

Rotational constants in cm-1:     0.012729     0.002546     0.002429
Rotational constants in MHz :   381.598733    76.341975    72.830835

                             ****ORCA TERMINATED NORMALLY****
TOTAL RUN TIME: 0 days 0 hours 27 minutes 41 seconds 957 msec
