                         Program Version 5.0.4 -  RELEASE  -
|  1> ! nofrozencore ReducedPop printbasis
|  2> ! B3LYP TZVP
|  3>
|  4> %basis
|  5> newgto V "CP(PPP)" end
|  6> end
|  7>
|  8> %pal
|  9> nprocs 8
| 10> end
| 11>
| 12> % sym SymThresh 1e-2 end
| 13> * xyz -2 2
| 14> V 1.076077573333121 -0.1214905525984032 0.26729675810386516
| 15> S 0.20424058099582898 -2.332517476644491 -0.3296680669575121
| 16> S 0.9449692002848974 0.382011177833131 -2.1259452792262707
| 17> S -0.24872199593354663 -0.4584674454898522 2.299542966854684
| 18> S 0.522553115400111 2.25406369853698 0.5092278422881344
| 19> O 2.615680162385222 -0.30114885427459337 0.6498292053667019
| 20> C 0.9896393731857155 2.1457722796124767 -2.1970619774069324
| 21> C 0.811871024737786 2.9270567013754842 -1.097132173669649
| 22> C -0.4175834457949137 -2.971858858859406 1.1975234043332585
| 23> C -0.6064354651797094 -2.19086628802307 2.293784814334877
| 24> S 1.2602705559813105 2.830769826224604 -3.847046910120266
| 25> S 0.8219853735541192 4.732484768505783 -1.1718796863986802
| 26> S -1.2754929801209638 -2.830200543923799 3.8413948146703922
| 27> S -0.8153631569187973 -4.73084916232953 1.1751612631951411
| 28> C -0.7337028789317637 5.124364535749906 -2.183171886917952
| 29> C -3.0028086926420277 -3.2446619273287705 3.400077311104209
| 30> C -0.39657545958002577 3.6661163299849475 -4.238068424176585
| 31> C -2.6408738448500317 -4.739776045050994 1.304532696022134
| 32> C -0.5357064828773986 5.023554116904288 -3.6516952343488516
| 33> H -0.9922020241148309 2.795946431606024 -3.8632653253717875
| 34> H -0.19539522858525513 3.5107868587623776 -5.34033032150798
| 35> H -1.4967820880529306 5.381837085848118 -4.064564632351755
| 36> H 0.2295256045906923 5.717851070716301 -4.01852513624834
| 37> H -0.8026685969625046 6.123902059143845 -1.6579498374417183
| 38> H -1.3584981358478747 4.386876273706371 -1.6191588181614411
| 39> C -3.2412489399225475 -4.6087356464680775 2.719752347675508
| 40> H -3.038567613430398 -5.689668461853485 0.9147201986808269
| 41> H -3.097512077793736 -3.9575763997268054 0.6843433313771377
| 42> H -2.7949193204056852 -5.385760879582913 3.351550948708124
| 43> H -4.323934667365122 -4.808144421844637 2.674444340116537
| 44> H -3.454491159237475 -2.4783213781644244 2.7568425782066908
| 45> H -3.6261185639483418 -3.2675881057149985 4.3074890617305215
| 46> *
| 47>
| 48> % eprnmr
| 49> gtensor true
| 50> Nuclei = all H {aiso,adip,aorb,fgrad,rho}
| 51> Nuclei = all V {aiso,adip,aorb,fgrad,rho}
| 52> end
| 53>
| 54>                          ****END OF INPUT****

CARTESIAN COORDINATES (ANGSTROEM)
---------------------------------
  V      1.077239   -0.121557    0.267531
  S      0.205402   -2.332584   -0.329433
  S      0.946131    0.381945   -2.125711
  S     -0.247561   -0.458534    2.299778
  S      0.523714    2.253997    0.509463
  O      2.616842   -0.301215    0.650064
  C      0.990801    2.145706   -2.196827
  C      0.813032    2.926990   -1.096897
  C     -0.416422   -2.971925    1.197758
  C     -0.605274   -2.190933    2.294020
  S      1.261432    2.830703   -3.846812
  S      0.823147    4.732418   -1.171645
  S     -1.274332   -2.830267    3.841630
  S     -0.814202   -4.730916    1.175396
  C     -0.732541    5.124298   -2.182937
  C     -3.001647   -3.244728    3.400312
  C     -0.395414    3.666050   -4.237834
  C     -2.639712   -4.739842    1.304767
  C     -0.534545    5.023488   -3.651461
  H     -0.991041    2.795880   -3.863031
  H     -0.194234    3.510720   -5.340096
  H     -1.495621    5.381771   -4.064330
  H      0.230687    5.717785   -4.018290
  H     -0.801507    6.123836   -1.657715
  H     -1.357337    4.386810   -1.618924
  C     -3.240088   -4.608802    2.719987
  H     -3.037406   -5.689735    0.914955
  H     -3.096351   -3.957643    0.684578
  H     -2.793758   -5.385827    3.351786
  H     -4.322773   -4.808211    2.674679
  H     -3.453330   -2.478388    2.757077
  H     -3.624957   -3.267655    4.307724

 Total Charge           Charge          ....   -2
 Multiplicity           Mult            ....    2
 Number of Electrons    NEL             ....  233
 Basis Dimension        Dim             ....  517

ORBITAL ENERGIES
----------------
                 SPIN UP ORBITALS
  NO   OCC          E(Eh)            E(eV)
   0   1.0000    -196.640047     -5350.8477
   1   1.0000     -88.678758     -2413.0717
   2   1.0000     -88.678713     -2413.0705
   3   1.0000     -88.672568     -2412.9033
   4   1.0000     -88.672495     -2412.9012
   5   1.0000     -88.612355     -2411.2648
   6   1.0000     -88.612261     -2411.2622
   7   1.0000     -88.611578     -2411.2436
   8   1.0000     -88.611557     -2411.2430
   9   1.0000     -22.015853      -599.0818
  10   1.0000     -18.857150      -513.1291
  11   1.0000     -18.522676      -504.0276
  12   1.0000     -18.516902      -503.8705
  13   1.0000     -18.516864      -503.8695
  14   1.0000     -10.025747      -272.8144
  15   1.0000     -10.025728      -272.8139
  16   1.0000     -10.016028      -272.5500
  17   1.0000     -10.014549      -272.5097
  18   1.0000     -10.014529      -272.5092
  19   1.0000     -10.001802      -272.1629
  20   1.0000      -9.992914      -271.9210
  21   1.0000      -9.992200      -271.9016
  22   1.0000      -9.989607      -271.8310
  23   1.0000      -9.988892      -271.8116
  24   1.0000      -7.732367      -210.4084
  25   1.0000      -7.732337      -210.4076
  26   1.0000      -7.726315      -210.2437
  27   1.0000      -7.726242      -210.2417
  28   1.0000      -7.666758      -208.6231
  29   1.0000      -7.666674      -208.6208
  30   1.0000      -7.666074      -208.6045
  31   1.0000      -7.666054      -208.6039
  32   1.0000      -5.697678      -155.0417
  33   1.0000      -5.697644      -155.0408
  34   1.0000      -5.693708      -154.9337
  35   1.0000      -5.693683      -154.9330
  36   1.0000      -5.691422      -154.8715
  37   1.0000      -5.691352      -154.8696
  38   1.0000      -5.687663      -154.7692
  39   1.0000      -5.687591      -154.7672
  40   1.0000      -5.687077      -154.7532
  41   1.0000      -5.687041      -154.7522
  42   1.0000      -5.681140      -154.5917
  43   1.0000      -5.681066      -154.5897
  44   1.0000      -5.631624      -153.2443
  45   1.0000      -5.631541      -153.2420
  46   1.0000      -5.630875      -153.2239
  47   1.0000      -5.630858      -153.2234
  48   1.0000      -5.625184      -153.0690
  49   1.0000      -5.625100      -153.0667
  50   1.0000      -5.624734      -153.0568
  51   1.0000      -5.624653      -153.0546
  52   1.0000      -5.624517      -153.0509
  53   1.0000      -5.624485      -153.0500
  54   1.0000      -5.624078      -153.0389
  55   1.0000      -5.624070      -153.0387
  56   1.0000      -2.409566       -65.5676
  57   1.0000      -1.450938       -39.4820
  58   1.0000      -1.439345       -39.1666
  59   1.0000      -1.438266       -39.1372
  60   1.0000      -0.651323       -17.7234
  61   1.0000      -0.642098       -17.4724
  62   1.0000      -0.618198       -16.8220
  63   1.0000      -0.596078       -16.2201
  64   1.0000      -0.592859       -16.1325
  65   1.0000      -0.576367       -15.6837
  66   1.0000      -0.575817       -15.6688
  67   1.0000      -0.494719       -13.4620
  68   1.0000      -0.490557       -13.3487
  69   1.0000      -0.487032       -13.2528
  70   1.0000      -0.485328       -13.2065
  71   1.0000      -0.423668       -11.5286
  72   1.0000      -0.415601       -11.3091
  73   1.0000      -0.414355       -11.2752
  74   1.0000      -0.406694       -11.0667
  75   1.0000      -0.375232       -10.2106
  76   1.0000      -0.370554       -10.0833
  77   1.0000      -0.304157        -8.2765
  78   1.0000      -0.286425        -7.7940
  79   1.0000      -0.277344        -7.5469
  80   1.0000      -0.276665        -7.5284
  81   1.0000      -0.262734        -7.1494
  82   1.0000      -0.260449        -7.0872
  83   1.0000      -0.252139        -6.8610
  84   1.0000      -0.235223        -6.4007
  85   1.0000      -0.207069        -5.6346
  86   1.0000      -0.202996        -5.5238
  87   1.0000      -0.194908        -5.3037
  88   1.0000      -0.184634        -5.0241
  89   1.0000      -0.181735        -4.9452
  90   1.0000      -0.179800        -4.8926
  91   1.0000      -0.172532        -4.6948
  92   1.0000      -0.151384        -4.1194
  93   1.0000      -0.150434        -4.0935
  94   1.0000      -0.142994        -3.8911
  95   1.0000      -0.135736        -3.6936
  96   1.0000      -0.130681        -3.5560
  97   1.0000      -0.097185        -2.6445
  98   1.0000      -0.095424        -2.5966
  99   1.0000      -0.089108        -2.4248
 100   1.0000      -0.080548        -2.1918
 101   1.0000      -0.080166        -2.1814
 102   1.0000      -0.079474        -2.1626
 103   1.0000      -0.067959        -1.8493
 104   1.0000      -0.049557        -1.3485
 105   1.0000      -0.038268        -1.0413
 106   1.0000      -0.037721        -1.0264
 107   1.0000      -0.034691        -0.9440
 108   1.0000      -0.032203        -0.8763
 109   1.0000      -0.012900        -0.3510
 110   1.0000      -0.004556        -0.1240
 111   1.0000      -0.002615        -0.0712
 112   1.0000       0.006082         0.1655
 113   1.0000       0.010757         0.2927
 114   1.0000       0.016308         0.4438
 115   1.0000       0.034079         0.9273
 116   1.0000       0.060191         1.6379
 117   0.0000       0.186104         5.0641
 118   0.0000       0.194462         5.2916
 119   0.0000       0.194624         5.2960
 120   0.0000       0.196011         5.3337
 121   0.0000       0.211427         5.7532

                 SPIN DOWN ORBITALS
  NO   OCC          E(Eh)            E(eV)
   0   1.0000    -196.640188     -5350.8516
   1   1.0000     -88.678771     -2413.0720
   2   1.0000     -88.678727     -2413.0708
   3   1.0000     -88.672582     -2412.9036
   4   1.0000     -88.672508     -2412.9016
   5   1.0000     -88.612514     -2411.2691
   6   1.0000     -88.612420     -2411.2665
   7   1.0000     -88.611738     -2411.2480
   8   1.0000     -88.611716     -2411.2474
   9   1.0000     -22.001178      -598.6825
  10   1.0000     -18.860737      -513.2267
  11   1.0000     -18.517542      -503.8879
  12   1.0000     -18.501401      -503.4487
  13   1.0000     -18.500728      -503.4304
  14   1.0000     -10.025743      -272.8143
  15   1.0000     -10.025725      -272.8138
  16   1.0000     -10.016028      -272.5500
  17   1.0000     -10.014545      -272.5096
  18   1.0000     -10.014525      -272.5091
  19   1.0000     -10.001802      -272.1629
  20   1.0000      -9.992659      -271.9141
  21   1.0000      -9.991947      -271.8947
  22   1.0000      -9.989355      -271.8242
  23   1.0000      -9.988642      -271.8048
  24   1.0000      -7.732381      -210.4088
  25   1.0000      -7.732351      -210.4080
  26   1.0000      -7.726329      -210.2441
  27   1.0000      -7.726256      -210.2421
  28   1.0000      -7.666905      -208.6271
  29   1.0000      -7.666822      -208.6248
  30   1.0000      -7.666223      -208.6085
  31   1.0000      -7.666202      -208.6080
  32   1.0000      -5.697695      -155.0422
  33   1.0000      -5.697660      -155.0412
  34   1.0000      -5.693728      -154.9342
  35   1.0000      -5.693704      -154.9336
  36   1.0000      -5.691439      -154.8719
  37   1.0000      -5.691369      -154.8700
  38   1.0000      -5.687683      -154.7697
  39   1.0000      -5.687611      -154.7678
  40   1.0000      -5.687094      -154.7537
  41   1.0000      -5.687057      -154.7527
  42   1.0000      -5.681157      -154.5921
  43   1.0000      -5.681083      -154.5901
  44   1.0000      -5.631795      -153.2489
  45   1.0000      -5.631712      -153.2467
  46   1.0000      -5.631047      -153.2286
  47   1.0000      -5.631029      -153.2281
  48   1.0000      -5.625573      -153.0796
  49   1.0000      -5.625490      -153.0774
  50   1.0000      -5.624908      -153.0615
  51   1.0000      -5.624876      -153.0607
  52   1.0000      -5.624869      -153.0605
  53   1.0000      -5.624787      -153.0582
  54   1.0000      -5.624215      -153.0427
  55   1.0000      -5.624204      -153.0424
  56   1.0000      -2.365367       -64.3649
  57   1.0000      -1.432099       -38.9694
  58   1.0000      -1.377912       -37.4949
  59   1.0000      -1.377274       -37.4775
  60   1.0000      -0.651293       -17.7226
  61   1.0000      -0.642040       -17.4708
  62   1.0000      -0.625879       -17.0310
  63   1.0000      -0.595869       -16.2144
  64   1.0000      -0.592668       -16.1273
  65   1.0000      -0.576363       -15.6836
  66   1.0000      -0.575811       -15.6686
  67   1.0000      -0.494737       -13.4625
  68   1.0000      -0.490590       -13.3496
  69   1.0000      -0.487037       -13.2530
  70   1.0000      -0.485355       -13.2072
  71   1.0000      -0.423928       -11.5357
  72   1.0000      -0.415886       -11.3168
  73   1.0000      -0.414386       -11.2760
  74   1.0000      -0.406779       -11.0690
  75   1.0000      -0.375199       -10.2097
  76   1.0000      -0.370562       -10.0835
  77   1.0000      -0.304141        -8.2761
  78   1.0000      -0.286400        -7.7934
  79   1.0000      -0.277326        -7.5464
  80   1.0000      -0.276651        -7.5281
  81   1.0000      -0.262733        -7.1493
  82   1.0000      -0.260244        -7.0816
  83   1.0000      -0.252051        -6.8587
  84   1.0000      -0.235172        -6.3994
  85   1.0000      -0.207030        -5.6336
  86   1.0000      -0.202812        -5.5188
  87   1.0000      -0.194627        -5.2961
  88   1.0000      -0.183273        -4.9871
  89   1.0000      -0.181723        -4.9449
  90   1.0000      -0.179353        -4.8805
  91   1.0000      -0.171888        -4.6773
  92   1.0000      -0.151097        -4.1116
  93   1.0000      -0.149774        -4.0756
  94   1.0000      -0.142788        -3.8855
  95   1.0000      -0.135520        -3.6877
  96   1.0000      -0.130505        -3.5512
  97   1.0000      -0.095734        -2.6050
  98   1.0000      -0.094943        -2.5835
  99   1.0000      -0.089223        -2.4279
 100   1.0000      -0.082078        -2.2334
 101   1.0000      -0.080083        -2.1792
 102   1.0000      -0.079783        -2.1710
 103   1.0000      -0.068809        -1.8724
 104   1.0000      -0.045598        -1.2408
 105   1.0000      -0.037655        -1.0246
 106   1.0000      -0.037429        -1.0185
 107   1.0000      -0.033963        -0.9242
 108   1.0000      -0.032180        -0.8757
 109   1.0000      -0.011992        -0.3263
 110   1.0000      -0.005664        -0.1541
 111   1.0000      -0.001786        -0.0486
 112   1.0000       0.006899         0.1877
 113   1.0000       0.011636         0.3166
 114   1.0000       0.034338         0.9344
 115   1.0000       0.059411         1.6166
 116   0.0000       0.185444         5.0462
 117   0.0000       0.187150         5.0926
 118   0.0000       0.194764         5.2998
 119   0.0000       0.194990         5.3059
 120   0.0000       0.196208         5.3391

MULLIKEN ATOMIC CHARGES AND SPIN POPULATIONS
--------------------------------------------
   0 V :    0.448074    1.199550
   1 S :   -0.252297   -0.024048
   2 S :   -0.257142   -0.024208
   3 S :   -0.252423   -0.023944
   4 S :   -0.257704   -0.024112
   5 O :   -0.506421   -0.138963
   6 C :   -0.123516    0.008767
   7 C :   -0.121599    0.008810
   8 C :   -0.114525    0.008927
   9 C :   -0.115214    0.008839
  10 S :   -0.081153   -0.000207
  11 S :   -0.081082   -0.000242
  12 S :   -0.033056   -0.000178
  13 S :   -0.033274   -0.000207
  14 C :   -0.363047    0.000218
  15 C :   -0.323453    0.000315
  16 C :   -0.362473    0.000201
  17 C :   -0.323034    0.000335
  18 C :    0.012496    0.000167
  19 H :    0.167183   -0.000094
  20 H :    0.095516    0.000048
  21 H :    0.047358    0.000019
  22 H :    0.092903    0.000037
  23 H :    0.095543    0.000048
  24 H :    0.167625   -0.000094
  25 C :   -0.115314    0.000120
  26 H :    0.096089    0.000022
  27 H :    0.138522   -0.000098
  28 H :    0.075243   -0.000001
  29 H :    0.045439    0.000047
  30 H :    0.138623   -0.000095
  31 H :    0.096114    0.000020
Sum of atomic charges         :   -2.0000000

LOEWDIN ATOMIC CHARGES AND SPIN POPULATIONS
-------------------------------------------
   0 V :   -0.242810    1.153497
   1 S :    0.089087   -0.016289
   2 S :    0.086894   -0.016395
   3 S :    0.088906   -0.016205
   4 S :    0.086621   -0.016353
   5 O :   -0.350672   -0.124399
   6 C :   -0.562755    0.009912
   7 C :   -0.562152    0.009879
   8 C :   -0.550009    0.009975
   9 C :   -0.550401    0.009998
  10 S :    0.306287   -0.001087
  11 S :    0.306228   -0.001108
  12 S :    0.348136   -0.001025
  13 S :    0.348054   -0.001037
  14 C :   -0.286124    0.000173
  15 C :   -0.304304    0.000167
  16 C :   -0.286216    0.000163
  17 C :   -0.304363    0.000176
  18 C :   -0.183448   -0.000017
  19 H :    0.081965   -0.000018
  20 H :    0.056434    0.000022
  21 H :    0.052678    0.000019
  22 H :    0.063628    0.000012
  23 H :    0.056448    0.000023
  24 H :    0.082072   -0.000018
  25 C :   -0.188871   -0.000046
  26 H :    0.047829    0.000005
  27 H :    0.063691   -0.000029
  28 H :    0.050106    0.000010
  29 H :    0.045490    0.000017
  30 H :    0.063749   -0.000029
  31 H :    0.047823    0.000004

  Mayer bond orders larger than 0.100000
B(  0-V ,  1-S ) :   0.7874 B(  0-V ,  2-S ) :   0.7908 B(  0-V ,  3-S ) :   0.7895
B(  0-V ,  4-S ) :   0.7882 B(  0-V ,  5-O ) :   2.1083 B(  1-S ,  8-C ) :   1.1388
B(  2-S ,  6-C ) :   1.1314 B(  3-S ,  9-C ) :   1.1379 B(  4-S ,  7-C ) :   1.1322
B(  6-C ,  7-C ) :   1.4854 B(  6-C , 10-S ) :   0.9734 B(  7-C , 11-S ) :   0.9733
B(  8-C ,  9-C ) :   1.5216 B(  8-C , 13-S ) :   0.9479 B(  9-C , 12-S ) :   0.9482
B( 10-S , 16-C ) :   0.9832 B( 11-S , 14-C ) :   0.9829 B( 12-S , 15-C ) :   1.0064
B( 13-S , 17-C ) :   1.0065 B( 14-C , 18-C ) :   0.8853 B( 14-C , 23-H ) :   0.9753
B( 14-C , 24-H ) :   0.9728 B( 15-C , 25-C ) :   0.8719 B( 15-C , 30-H ) :   0.9742
B( 15-C , 31-H ) :   0.9668 B( 16-C , 18-C ) :   0.8856 B( 16-C , 19-H ) :   0.9727
B( 16-C , 20-H ) :   0.9753 B( 17-C , 25-C ) :   0.8717 B( 17-C , 26-H ) :   0.9669
B( 17-C , 27-H ) :   0.9742 B( 18-C , 21-H ) :   0.9518 B( 18-C , 22-H ) :   0.9613
B( 25-C , 28-H ) :   0.9756 B( 25-C , 29-H ) :   0.9538

FINAL SINGLE POINT ENERGY     -4592.684281674015

DIPOLE MOMENT
-------------
                                X             Y             Z
Electronic contribution:     25.47724      -2.32989       5.96121
Nuclear contribution   :    -28.37907       2.74734      -6.74612
                        -----------------------------------------
Total Dipole Moment    :     -2.90183       0.41745      -0.78491
                        -----------------------------------------
Magnitude (a.u.)       :      3.03496
Magnitude (Debye)      :      7.71425

Rotational constants in cm-1:     0.012773     0.002549     0.002431
Rotational constants in MHz :   382.938824    76.406590    72.878285

                             ****ORCA TERMINATED NORMALLY****
TOTAL RUN TIME: 0 days 0 hours 27 minutes 55 seconds 597 msec
