                         Program Version 5.0.4 -  RELEASE  -
|  1> ! nofrozencore ReducedPop printbasis
|  2> ! B3LYP TZVP
|  3>
|  4> %basis
|  5> newgto V "CP(PPP)" end
|  6> end
|  7>
|  8> %pal
|  9> nprocs 4
| 10> end
| 11>
| 12> % sym SymThresh 1e-2 end
| 13> * xyz -2 2
| 14> V -0.14286941178764478 -0.6232985378316684 -0.9138998614128119
| 15> S 2.2377889283778116 -0.06099564362903372 -0.7623541553667605
| 16> S 0.2741843676519388 -2.1310011179723256 0.9703805787715475
| 17> S -0.3681260794140992 1.7278708904377944 -1.5614136886673908
| 18> S -2.336832243784036 -0.36068785366959466 0.14679515279971111
| 19> O -0.3419861954647379 -1.5141429953462402 -2.2238626280850777
| 20> C -1.3339861095837193 -2.4425494074900067 1.6356742145078609
| 21> C -2.4224217447848337 -1.7037538041232 1.2934817090022275
| 22> C 2.365262584852055 1.473380665980083 -1.6273335222590546
| 23> C 1.2826217581950436 2.223118679499222 -1.964665868920028
| 24> S -1.4108889869465686 -3.7969751302192325 2.8254729901454594
| 25> S -4.057783135073155 -1.9952976266189997 1.9969088406120243
| 26> S 1.413238077853465 3.8048970847053774 -2.8140086245707496
| 27> S 4.057342569240402 1.9905305432297928 -2.002464833026288
| 28> C -3.8380606007827396 -1.5233163571989616 3.7658283297755775
| 29> C 2.197685819548301 4.861286670930729 -1.5934784021045056
| 30> C -1.7704648867654875 -2.9299931653868803 4.41957842605453
| 31> C 4.286142414580948 3.5079350171154773 -0.8849393552205912
| 32> C -3.2367640906749156 -2.588889631911645 4.681606137912048
| 33> H -1.1360812247582137 -2.0411470569816537 4.435171002369131
| 34> H -1.4041811960529689 -3.6200156219428177 5.18613540958643
| 35> H -3.2962252279465765 -2.2429425104482195 5.726660695092453
| 36> H -3.848758714119785 -3.4946381888237 4.61021664724078
| 37> H -4.840331574282392 -1.2706604450181014 4.126622089464013
| 38> H -3.2354842540954745 -0.6127800692484291 3.799128841667934
| 39> C 3.721022410289787 4.803710781690523 -1.4636028569726165
| 40> H 5.392608478033719 3.3935719122584094 -0.8421859142271664
| 41> H 3.870102961961016 2.983399166173027 0.023255624495101577
| 42> H 3.9756389088174995 5.121516413992015 -2.505208665610863
| 43> H 4.415937714956561 5.37052638615592 -0.6900273950476589
| 44> H 1.9580373422067066 4.748549930162427 -0.4930382107965935
| 45> H 2.055014007204558 5.960622598070746 -1.736866986935216
| 46> *
| 47>
| 48> % eprnmr
| 49> gtensor true
| 50> Nuclei = all H {aiso,adip,aorb,fgrad,rho}
| 51> Nuclei = all V {aiso,adip,aorb,fgrad,rho}
| 52> end
| 53>
| 54>                          ****END OF INPUT****

CARTESIAN COORDINATES (ANGSTROEM)
---------------------------------
  V     -0.143064   -0.624014   -0.914826
  S      2.237594   -0.061711   -0.763281
  S      0.273990   -2.131717    0.969454
  S     -0.368321    1.727155   -1.562340
  S     -2.337027   -0.361403    0.145869
  O     -0.342181   -1.514859   -2.224789
  C     -1.334181   -2.443265    1.634748
  C     -2.422616   -1.704469    1.292555
  C      2.365068    1.472665   -1.628260
  C      1.282427    2.222403   -1.965592
  S     -1.411083   -3.797691    2.824547
  S     -4.057978   -1.996013    1.995982
  S      1.413044    3.804182   -2.814935
  S      4.057148    1.989815   -2.003391
  C     -3.838255   -1.524032    3.764902
  C      2.197491    4.860571   -1.594405
  C     -1.770659   -2.930709    4.418652
  C      4.285948    3.507219   -0.885866
  C     -3.236959   -2.589605    4.680680
  H     -1.136276   -2.041863    4.434245
  H     -1.404376   -3.620731    5.185209
  H     -3.296420   -2.243658    5.725734
  H     -3.848953   -3.495354    4.609290
  H     -4.840526   -1.271376    4.125696
  H     -3.235679   -0.613496    3.798202
  C      3.720828    4.802995   -1.464529
  H      5.392414    3.392856   -0.843112
  H      3.869908    2.982684    0.022329
  H      3.975444    5.120801   -2.506135
  H      4.415743    5.369811   -0.690954
  H      1.957843    4.747834   -0.493965
  H      2.054820    5.959907   -1.737793

 Total Charge           Charge          ....   -2
 Multiplicity           Mult            ....    2
 Number of Electrons    NEL             ....  233
 Basis Dimension        Dim             ....  517

ORBITAL ENERGIES
----------------
                 SPIN UP ORBITALS
  NO   OCC          E(Eh)            E(eV)
   0   1.0000    -196.640816     -5350.8686
   1   1.0000     -88.688330     -2413.3322
   2   1.0000     -88.677505     -2413.0376
   3   1.0000     -88.676195     -2413.0020
   4   1.0000     -88.668697     -2412.7979
   5   1.0000     -88.613635     -2411.2996
   6   1.0000     -88.612491     -2411.2685
   7   1.0000     -88.612488     -2411.2684
   8   1.0000     -88.612399     -2411.2660
   9   1.0000     -22.016620      -599.1027
  10   1.0000     -18.857871      -513.1488
  11   1.0000     -18.523443      -504.0485
  12   1.0000     -18.517669      -503.8914
  13   1.0000     -18.517634      -503.8904
  14   1.0000     -10.024640      -272.7843
  15   1.0000     -10.022181      -272.7174
  16   1.0000     -10.017578      -272.5922
  17   1.0000     -10.015778      -272.5432
  18   1.0000     -10.015679      -272.5405
  19   1.0000     -10.005004      -272.2500
  20   1.0000      -9.993158      -271.9276
  21   1.0000      -9.992283      -271.9039
  22   1.0000      -9.992239      -271.9027
  23   1.0000      -9.991547      -271.8838
  24   1.0000      -7.741885      -210.6674
  25   1.0000      -7.731139      -210.3750
  26   1.0000      -7.729875      -210.3406
  27   1.0000      -7.722601      -210.1427
  28   1.0000      -7.668039      -208.6579
  29   1.0000      -7.666950      -208.6283
  30   1.0000      -7.666920      -208.6275
  31   1.0000      -7.666839      -208.6253
  32   1.0000      -5.707399      -155.3062
  33   1.0000      -5.703081      -155.1887
  34   1.0000      -5.696524      -155.0103
  35   1.0000      -5.696401      -155.0069
  36   1.0000      -5.695105      -154.9717
  37   1.0000      -5.692488      -154.9005
  38   1.0000      -5.691233      -154.8663
  39   1.0000      -5.687564      -154.7665
  40   1.0000      -5.685879      -154.7206
  41   1.0000      -5.684624      -154.6865
  42   1.0000      -5.684027      -154.6702
  43   1.0000      -5.677481      -154.4921
  44   1.0000      -5.632844      -153.2775
  45   1.0000      -5.631813      -153.2494
  46   1.0000      -5.631783      -153.2486
  47   1.0000      -5.631689      -153.2460
  48   1.0000      -5.626482      -153.1044
  49   1.0000      -5.626061      -153.0929
  50   1.0000      -5.625384      -153.0745
  51   1.0000      -5.625345      -153.0734
  52   1.0000      -5.625277      -153.0716
  53   1.0000      -5.624929      -153.0621
  54   1.0000      -5.624865      -153.0604
  55   1.0000      -5.624818      -153.0591
  56   1.0000      -2.410317       -65.5881
  57   1.0000      -1.451676       -39.5021
  58   1.0000      -1.440098       -39.1871
  59   1.0000      -1.439019       -39.1577
  60   1.0000      -0.646602       -17.5949
  61   1.0000      -0.644112       -17.5272
  62   1.0000      -0.618895       -16.8410
  63   1.0000      -0.595078       -16.1929
  64   1.0000      -0.594009       -16.1638
  65   1.0000      -0.578288       -15.7360
  66   1.0000      -0.576126       -15.6772
  67   1.0000      -0.493540       -13.4299
  68   1.0000      -0.490774       -13.3546
  69   1.0000      -0.487813       -13.2741
  70   1.0000      -0.486677       -13.2432
  71   1.0000      -0.425029       -11.5656
  72   1.0000      -0.421411       -11.4672
  73   1.0000      -0.412063       -11.2128
  74   1.0000      -0.405753       -11.0411
  75   1.0000      -0.375559       -10.2195
  76   1.0000      -0.370567       -10.0836
  77   1.0000      -0.296314        -8.0631
  78   1.0000      -0.293151        -7.9770
  79   1.0000      -0.277990        -7.5645
  80   1.0000      -0.275748        -7.5035
  81   1.0000      -0.263371        -7.1667
  82   1.0000      -0.257041        -6.9945
  83   1.0000      -0.244954        -6.6655
  84   1.0000      -0.241167        -6.5625
  85   1.0000      -0.196379        -5.3438
  86   1.0000      -0.193958        -5.2779
  87   1.0000      -0.192067        -5.2264
  88   1.0000      -0.185025        -5.0348
  89   1.0000      -0.183007        -4.9799
  90   1.0000      -0.179242        -4.8774
  91   1.0000      -0.169132        -4.6023
  92   1.0000      -0.152378        -4.1464
  93   1.0000      -0.150249        -4.0885
  94   1.0000      -0.145573        -3.9612
  95   1.0000      -0.143015        -3.8916
  96   1.0000      -0.127120        -3.4591
  97   1.0000      -0.098263        -2.6739
  98   1.0000      -0.096502        -2.6260
  99   1.0000      -0.088476        -2.4075
 100   1.0000      -0.083216        -2.2644
 101   1.0000      -0.081030        -2.2049
 102   1.0000      -0.079472        -2.1626
 103   1.0000      -0.069126        -1.8810
 104   1.0000      -0.050861        -1.3840
 105   1.0000      -0.041338        -1.1249
 106   1.0000      -0.037978        -1.0334
 107   1.0000      -0.036692        -0.9984
 108   1.0000      -0.031410        -0.8547
 109   1.0000      -0.013916        -0.3787
 110   1.0000      -0.004989        -0.1357
 111   1.0000      -0.003649        -0.0993
 112   1.0000       0.005539         0.1507
 113   1.0000       0.010013         0.2725
 114   1.0000       0.015575         0.4238
 115   1.0000       0.032932         0.8961
 116   1.0000       0.059074         1.6075
 117   0.0000       0.184639         5.0243
 118   0.0000       0.193023         5.2524
 119   0.0000       0.194495         5.2925
 120   0.0000       0.196277         5.3410
 121   0.0000       0.210735         5.7344

                 SPIN DOWN ORBITALS
  NO   OCC          E(Eh)            E(eV)
   0   1.0000    -196.640957     -5350.8725
   1   1.0000     -88.688343     -2413.3325
   2   1.0000     -88.677518     -2413.0380
   3   1.0000     -88.676209     -2413.0023
   4   1.0000     -88.668711     -2412.7983
   5   1.0000     -88.613795     -2411.3040
   6   1.0000     -88.612649     -2411.2728
   7   1.0000     -88.612648     -2411.2728
   8   1.0000     -88.612559     -2411.2703
   9   1.0000     -22.001949      -598.7035
  10   1.0000     -18.861459      -513.2464
  11   1.0000     -18.518310      -503.9088
  12   1.0000     -18.502176      -503.4698
  13   1.0000     -18.501498      -503.4514
  14   1.0000     -10.024636      -272.7842
  15   1.0000     -10.022177      -272.7173
  16   1.0000     -10.017578      -272.5922
  17   1.0000     -10.015774      -272.5431
  18   1.0000     -10.015675      -272.5404
  19   1.0000     -10.005003      -272.2500
  20   1.0000      -9.992902      -271.9207
  21   1.0000      -9.992028      -271.8969
  22   1.0000      -9.991987      -271.8958
  23   1.0000      -9.991294      -271.8769
  24   1.0000      -7.741899      -210.6678
  25   1.0000      -7.731153      -210.3754
  26   1.0000      -7.729889      -210.3410
  27   1.0000      -7.722615      -210.1430
  28   1.0000      -7.668188      -208.6620
  29   1.0000      -7.667099      -208.6324
  30   1.0000      -7.667067      -208.6315
  31   1.0000      -7.666988      -208.6293
  32   1.0000      -5.707414      -155.3066
  33   1.0000      -5.703102      -155.1893
  34   1.0000      -5.696540      -155.0107
  35   1.0000      -5.696417      -155.0074
  36   1.0000      -5.695122      -154.9721
  37   1.0000      -5.692508      -154.9010
  38   1.0000      -5.691253      -154.8669
  39   1.0000      -5.687583      -154.7670
  40   1.0000      -5.685896      -154.7211
  41   1.0000      -5.684641      -154.6869
  42   1.0000      -5.684046      -154.6708
  43   1.0000      -5.677499      -154.4926
  44   1.0000      -5.633015      -153.2821
  45   1.0000      -5.631984      -153.2541
  46   1.0000      -5.631955      -153.2533
  47   1.0000      -5.631861      -153.2507
  48   1.0000      -5.626869      -153.1149
  49   1.0000      -5.626203      -153.0968
  50   1.0000      -5.625775      -153.0851
  51   1.0000      -5.625734      -153.0840
  52   1.0000      -5.625668      -153.0822
  53   1.0000      -5.625065      -153.0658
  54   1.0000      -5.624996      -153.0639
  55   1.0000      -5.624953      -153.0628
  56   1.0000      -2.366126       -64.3855
  57   1.0000      -1.432836       -38.9894
  58   1.0000      -1.378680       -37.5158
  59   1.0000      -1.378038       -37.4983
  60   1.0000      -0.646553       -17.5936
  61   1.0000      -0.644062       -17.5258
  62   1.0000      -0.626584       -17.0502
  63   1.0000      -0.594886       -16.1877
  64   1.0000      -0.593807       -16.1583
  65   1.0000      -0.578281       -15.7358
  66   1.0000      -0.576121       -15.6770
  67   1.0000      -0.493556       -13.4303
  68   1.0000      -0.490805       -13.3555
  69   1.0000      -0.487822       -13.2743
  70   1.0000      -0.486702       -13.2438
  71   1.0000      -0.425274       -11.5723
  72   1.0000      -0.421714       -11.4754
  73   1.0000      -0.412077       -11.2132
  74   1.0000      -0.405847       -11.0436
  75   1.0000      -0.375534       -10.2188
  76   1.0000      -0.370573       -10.0838
  77   1.0000      -0.296295        -8.0626
  78   1.0000      -0.293134        -7.9766
  79   1.0000      -0.277970        -7.5640
  80   1.0000      -0.275734        -7.5031
  81   1.0000      -0.263150        -7.1607
  82   1.0000      -0.256988        -6.9930
  83   1.0000      -0.244933        -6.6650
  84   1.0000      -0.241077        -6.5600
  85   1.0000      -0.196127        -5.3369
  86   1.0000      -0.193809        -5.2738
  87   1.0000      -0.191960        -5.2235
  88   1.0000      -0.184949        -5.0327
  89   1.0000      -0.181074        -4.9273
  90   1.0000      -0.179068        -4.8727
  91   1.0000      -0.168886        -4.5956
  92   1.0000      -0.151952        -4.1348
  93   1.0000      -0.149769        -4.0754
  94   1.0000      -0.145363        -3.9555
  95   1.0000      -0.142813        -3.8861
  96   1.0000      -0.126894        -3.4530
  97   1.0000      -0.097265        -2.6467
  98   1.0000      -0.095559        -2.6003
  99   1.0000      -0.088694        -2.4135
 100   1.0000      -0.083144        -2.2625
 101   1.0000      -0.082503        -2.2450
 102   1.0000      -0.079631        -2.1669
 103   1.0000      -0.070173        -1.9095
 104   1.0000      -0.046900        -1.2762
 105   1.0000      -0.041009        -1.1159
 106   1.0000      -0.037619        -1.0237
 107   1.0000      -0.035818        -0.9747
 108   1.0000      -0.031173        -0.8483
 109   1.0000      -0.012994        -0.3536
 110   1.0000      -0.006330        -0.1723
 111   1.0000      -0.002707        -0.0737
 112   1.0000       0.006416         0.1746
 113   1.0000       0.010928         0.2974
 114   1.0000       0.033189         0.9031
 115   1.0000       0.058283         1.5860
 116   0.0000       0.184461         5.0195
 117   0.0000       0.185598         5.0504
 118   0.0000       0.193473         5.2647
 119   0.0000       0.194897         5.3034
 120   0.0000       0.196491         5.3468

MULLIKEN ATOMIC CHARGES AND SPIN POPULATIONS
--------------------------------------------
   0 V :    0.447831    1.199403
   1 S :   -0.251351   -0.024204
   2 S :   -0.254022   -0.024220
   3 S :   -0.254528   -0.023778
   4 S :   -0.253665   -0.024077
   5 O :   -0.506084   -0.139041
   6 C :   -0.119260    0.008850
   7 C :   -0.112964    0.008888
   8 C :   -0.146303    0.008954
   9 C :   -0.089631    0.008713
  10 S :   -0.047080   -0.000166
  11 S :   -0.042073   -0.000199
  12 S :   -0.005473   -0.000098
  13 S :   -0.087547   -0.000277
  14 C :   -0.338444    0.000293
  15 C :   -0.303139    0.000350
  16 C :   -0.338790    0.000264
  17 C :   -0.315764    0.000259
  18 C :   -0.083777    0.000135
  19 H :    0.148329   -0.000101
  20 H :    0.102027    0.000020
  21 H :    0.044553    0.000039
  22 H :    0.078615    0.000018
  23 H :    0.101892    0.000022
  24 H :    0.146087   -0.000104
  25 C :   -0.107459    0.000107
  26 H :    0.095453    0.000027
  27 H :    0.167219   -0.000062
  28 H :    0.074980   -0.000021
  29 H :    0.032242    0.000062
  30 H :    0.124016   -0.000085
  31 H :    0.094109    0.000029
Sum of atomic charges         :   -2.0000000

LOEWDIN ATOMIC CHARGES AND SPIN POPULATIONS
-------------------------------------------
   0 V :   -0.242616    1.153386
   1 S :    0.091991   -0.016434
   2 S :    0.088007   -0.016401
   3 S :    0.086520   -0.016079
   4 S :    0.088191   -0.016323
   5 O :   -0.350565   -0.124463
   6 C :   -0.553246    0.009967
   7 C :   -0.552620    0.009984
   8 C :   -0.552120    0.009950
   9 C :   -0.554193    0.009997
  10 S :    0.334234   -0.001026
  11 S :    0.339508   -0.001044
  12 S :    0.382473   -0.000964
  13 S :    0.293935   -0.001134
  14 C :   -0.294742    0.000164
  15 C :   -0.326945    0.000153
  16 C :   -0.292752    0.000156
  17 C :   -0.297913    0.000213
  18 C :   -0.184910   -0.000036
  19 H :    0.066376   -0.000026
  20 H :    0.047225    0.000004
  21 H :    0.046903    0.000017
  22 H :    0.053440    0.000013
  23 H :    0.047511    0.000005
  24 H :    0.065627   -0.000028
  25 C :   -0.207047   -0.000053
  26 H :    0.049294    0.000019
  27 H :    0.085130   -0.000014
  28 H :    0.057394    0.000003
  29 H :    0.065235    0.000031
  30 H :    0.067174   -0.000039
  31 H :    0.053499    0.000002

  Mayer bond orders larger than 0.100000
B(  0-V ,  1-S ) :   0.7865 B(  0-V ,  2-S ) :   0.7911 B(  0-V ,  3-S ) :   0.7892
B(  0-V ,  4-S ) :   0.7892 B(  0-V ,  5-O ) :   2.1085 B(  1-S ,  8-C ) :   1.1385
B(  2-S ,  6-C ) :   1.1363 B(  3-S ,  9-C ) :   1.1332 B(  4-S ,  7-C ) :   1.1378
B(  6-C ,  7-C ) :   1.5178 B(  6-C , 10-S ) :   0.9564 B(  7-C , 11-S ) :   0.9511
B(  8-C ,  9-C ) :   1.5050 B(  8-C , 13-S ) :   0.9884 B(  9-C , 12-S ) :   0.9201
B( 10-S , 16-C ) :   1.0032 B( 11-S , 14-C ) :   1.0063 B( 12-S , 15-C ) :   1.0097
B( 13-S , 17-C ) :   0.9512 B( 14-C , 18-C ) :   0.8767 B( 14-C , 23-H ) :   0.9694
B( 14-C , 24-H ) :   0.9755 B( 15-C , 25-C ) :   0.8594 B( 15-C , 30-H ) :   0.9696
B( 15-C , 31-H ) :   0.9582 B( 16-C , 18-C ) :   0.8793 B( 16-C , 19-H ) :   0.9749
B( 16-C , 20-H ) :   0.9707 B( 17-C , 25-C ) :   0.8982 B( 17-C , 26-H ) :   0.9766
B( 17-C , 27-H ) :   0.9615 B( 18-C , 21-H ) :   0.9526 B( 18-C , 22-H ) :   0.9737
B( 25-C , 28-H ) :   0.9632 B( 25-C , 29-H ) :   0.9531

FINAL SINGLE POINT ENERGY     -4592.665365093607

DIPOLE MOMENT
-------------
                                X             Y             Z
Electronic contribution:     -3.99508     -14.70660     -22.04011
Nuclear contribution   :      4.32457      16.29082      24.52339
                        -----------------------------------------
Total Dipole Moment    :      0.32948       1.58422       2.48328
                        -----------------------------------------
Magnitude (a.u.)       :      2.96395
Magnitude (Debye)      :      7.53377

Rotational constants in cm-1:     0.012767     0.002548     0.002431
Rotational constants in MHz :   382.751112    76.397562    72.880263

                             ****ORCA TERMINATED NORMALLY****
TOTAL RUN TIME: 0 days 0 hours 43 minutes 16 seconds 354 msec
