                         Program Version 5.0.4 -  RELEASE  -
|  1> ! nofrozencore ReducedPop printbasis
|  2> ! B3LYP TZVP
|  3>
|  4> %basis
|  5> newgto V "CP(PPP)" end
|  6> end
|  7>
|  8> %pal
|  9> nprocs 4
| 10> end
| 11>
| 12> % sym SymThresh 1e-2 end
| 13> * xyz -2 2
| 14> V 0.437574646605388 -0.9665812389977971 0.30878219933741846
| 15> S -0.11761623640807127 -1.139586803155088 -2.0689360619093495
| 16> S 2.271619339982279 0.48777374455542544 -0.4002153312428876
| 17> S -1.9861759726554253 -1.119082745148648 0.6038638070979594
| 18> S 0.41720151267349587 0.482039694839492 2.2817900207350363
| 19> O 1.0845437296526812 -2.4028874608106667 0.7612249391184709
| 20> C 2.7282143714373452 1.3531883007917844 1.0728737573670895
| 21> C 1.9540379121792728 1.351840401860038 2.190775625600659
| 22> C -1.79620772107041 -1.7025986566524676 -2.0766987848550063
| 23> C -2.5740674931703595 -1.6942545818777501 -0.964473061720188
| 24> S 4.282577473997704 2.261056320751543 0.965679154581863
| 25> S 2.397374331335815 2.2627912399707837 3.68263473219075
| 26> S -4.296337700848061 -2.25995025491233 -0.9692737233162222
| 27> S -2.3959859087987194 -2.2814665775676652 -3.6868820289193764
| 28> C 2.2680420465634086 4.026274471720207 3.149638516962009
| 29> C -5.085361354134244 -0.905666264930125 -1.9594633882263366
| 30> C 3.7423955765131147 4.0257180491261595 1.0283384425275266
| 31> C -3.5866844566250027 -0.9235083961426939 -4.103521230348341
| 32> C 3.4724248700353795 4.601946136712922 2.413505708009576
| 33> H 2.857447022310186 4.098217132596911 0.3924890150778762
| 34> H 4.547027099628631 4.591234579426373 0.5478998928804232
| 35> H 3.326219128788413 5.689491205452854 2.3115403398207626
| 36> H 4.364471885081682 4.458805459150437 3.0334764746896945
| 37> H 2.0965699393660615 4.594223917014508 4.069462844920993
| 38> H 1.3642935089019916 4.096415815926598 2.5405013154870284
| 39> C -5.076518165870376 -1.2486000173384846 -3.5459044852442663
| 40> H -3.5882309645643877 -1.2025541183014226 -5.191356214670462
| 41> H -3.3894494074370645 0.19508671179024137 -4.002492299490207
| 42> H -5.631203114644499 -2.1361926684521078 -3.926051155931434
| 43> H -5.594538812943068 -0.30228468163694905 -3.9156679921882045
| 44> H -4.912025479550875 0.21317166946948302 -1.8224271661686764
| 45> H -6.109929308571332 -1.1709578699409242 -1.5837755662019928
| 46> *
| 47>
| 48> % eprnmr
| 49> gtensor true
| 50> Nuclei = all H {aiso,adip,aorb,fgrad,rho}
| 51> Nuclei = all V {aiso,adip,aorb,fgrad,rho}
| 52> end
| 53>
| 54>                          ****END OF INPUT****

CARTESIAN COORDINATES (ANGSTROEM)
---------------------------------
  V      0.438105   -0.967578    0.309148
  S     -0.117085   -1.140583   -2.068570
  S      2.272150    0.486777   -0.399849
  S     -1.985645   -1.120079    0.604230
  S      0.417732    0.481043    2.282156
  O      1.085075   -2.403884    0.761591
  C      2.728745    1.352192    1.073240
  C      1.954569    1.350844    2.191142
  C     -1.795677   -1.703595   -2.076333
  C     -2.573537   -1.695251   -0.964107
  S      4.283108    2.260060    0.966045
  S      2.397905    2.261795    3.683001
  S     -4.295807   -2.260947   -0.968908
  S     -2.395455   -2.282463   -3.686516
  C      2.268573    4.025278    3.150005
  C     -5.084831   -0.906663   -1.959097
  C      3.742926    4.024722    1.028705
  C     -3.586154   -0.924505   -4.103155
  C      3.472956    4.600950    2.413872
  H      2.857978    4.097221    0.392855
  H      4.547558    4.590238    0.548266
  H      3.326750    5.688495    2.311906
  H      4.365003    4.457809    3.033843
  H      2.097101    4.593227    4.069829
  H      1.364824    4.095419    2.540867
  C     -5.075987   -1.249596   -3.545538
  H     -3.587700   -1.203551   -5.190990
  H     -3.388919    0.194090   -4.002126
  H     -5.630672   -2.137189   -3.925685
  H     -5.594008   -0.303281   -3.915302
  H     -4.911495    0.212175   -1.822061
  H     -6.109399   -1.171954   -1.583409

 Total Charge           Charge          ....   -2
 Multiplicity           Mult            ....    2
 Number of Electrons    NEL             ....  233
 Basis Dimension        Dim             ....  517

ORBITAL ENERGIES
----------------
                 SPIN UP ORBITALS
  NO   OCC          E(Eh)            E(eV)
   0   1.0000    -196.642759     -5350.9215
   1   1.0000     -88.681895     -2413.1570
   2   1.0000     -88.681863     -2413.1562
   3   1.0000     -88.676290     -2413.0045
   4   1.0000     -88.676248     -2413.0034
   5   1.0000     -88.612212     -2411.2609
   6   1.0000     -88.612171     -2411.2598
   7   1.0000     -88.611386     -2411.2384
   8   1.0000     -88.611289     -2411.2358
   9   1.0000     -22.018402      -599.1512
  10   1.0000     -18.850466      -512.9473
  11   1.0000     -18.525200      -504.0963
  12   1.0000     -18.519472      -503.9405
  13   1.0000     -18.519462      -503.9402
  14   1.0000     -10.031145      -272.9613
  15   1.0000     -10.031126      -272.9608
  16   1.0000     -10.021206      -272.6909
  17   1.0000     -10.014914      -272.5197
  18   1.0000     -10.014887      -272.5189
  19   1.0000     -10.004050      -272.2240
  20   1.0000      -9.991836      -271.8917
  21   1.0000      -9.991118      -271.8721
  22   1.0000      -9.990537      -271.8563
  23   1.0000      -9.989813      -271.8366
  24   1.0000      -7.735044      -210.4812
  25   1.0000      -7.735029      -210.4808
  26   1.0000      -7.729961      -210.3429
  27   1.0000      -7.729906      -210.3414
  28   1.0000      -7.666629      -208.6196
  29   1.0000      -7.666582      -208.6183
  30   1.0000      -7.665759      -208.5959
  31   1.0000      -7.665667      -208.5934
  32   1.0000      -5.700356      -155.1146
  33   1.0000      -5.700337      -155.1141
  34   1.0000      -5.696525      -155.0103
  35   1.0000      -5.696516      -155.0101
  36   1.0000      -5.695206      -154.9744
  37   1.0000      -5.695153      -154.9730
  38   1.0000      -5.691308      -154.8684
  39   1.0000      -5.691253      -154.8669
  40   1.0000      -5.689684      -154.8242
  41   1.0000      -5.689666      -154.8237
  42   1.0000      -5.684707      -154.6887
  43   1.0000      -5.684657      -154.6874
  44   1.0000      -5.631466      -153.2400
  45   1.0000      -5.631410      -153.2384
  46   1.0000      -5.630593      -153.2162
  47   1.0000      -5.630507      -153.2139
  48   1.0000      -5.625049      -153.0654
  49   1.0000      -5.625010      -153.0643
  50   1.0000      -5.624632      -153.0540
  51   1.0000      -5.624590      -153.0529
  52   1.0000      -5.624195      -153.0421
  53   1.0000      -5.624099      -153.0395
  54   1.0000      -5.623753      -153.0301
  55   1.0000      -5.623660      -153.0276
  56   1.0000      -2.410178       -65.5843
  57   1.0000      -1.447496       -39.3884
  58   1.0000      -1.440587       -39.2004
  59   1.0000      -1.439474       -39.1701
  60   1.0000      -0.644236       -17.5306
  61   1.0000      -0.632301       -17.2058
  62   1.0000      -0.608907       -16.5692
  63   1.0000      -0.593840       -16.1592
  64   1.0000      -0.583136       -15.8679
  65   1.0000      -0.575881       -15.6705
  66   1.0000      -0.572550       -15.5799
  67   1.0000      -0.490872       -13.3573
  68   1.0000      -0.487424       -13.2635
  69   1.0000      -0.487208       -13.2576
  70   1.0000      -0.480331       -13.0705
  71   1.0000      -0.422089       -11.4856
  72   1.0000      -0.416471       -11.3327
  73   1.0000      -0.411671       -11.2021
  74   1.0000      -0.405811       -11.0427
  75   1.0000      -0.375740       -10.2244
  76   1.0000      -0.372700       -10.1417
  77   1.0000      -0.294978        -8.0268
  78   1.0000      -0.292491        -7.9591
  79   1.0000      -0.278556        -7.5799
  80   1.0000      -0.266341        -7.2475
  81   1.0000      -0.257083        -6.9956
  82   1.0000      -0.250618        -6.8197
  83   1.0000      -0.242055        -6.5866
  84   1.0000      -0.212396        -5.7796
  85   1.0000      -0.206171        -5.6102
  86   1.0000      -0.193369        -5.2618
  87   1.0000      -0.192800        -5.2464
  88   1.0000      -0.184889        -5.0311
  89   1.0000      -0.181430        -4.9370
  90   1.0000      -0.170872        -4.6497
  91   1.0000      -0.167849        -4.5674
  92   1.0000      -0.157527        -4.2865
  93   1.0000      -0.155074        -4.2198
  94   1.0000      -0.149108        -4.0574
  95   1.0000      -0.145659        -3.9636
  96   1.0000      -0.141568        -3.8522
  97   1.0000      -0.096090        -2.6147
  98   1.0000      -0.089842        -2.4447
  99   1.0000      -0.084972        -2.3122
 100   1.0000      -0.080765        -2.1977
 101   1.0000      -0.079071        -2.1516
 102   1.0000      -0.067599        -1.8395
 103   1.0000      -0.060193        -1.6379
 104   1.0000      -0.049701        -1.3524
 105   1.0000      -0.038177        -1.0388
 106   1.0000      -0.037507        -1.0206
 107   1.0000      -0.035526        -0.9667
 108   1.0000      -0.031093        -0.8461
 109   1.0000      -0.012669        -0.3447
 110   1.0000      -0.004258        -0.1159
 111   1.0000      -0.002476        -0.0674
 112   1.0000       0.006842         0.1862
 113   1.0000       0.010811         0.2942
 114   1.0000       0.015630         0.4253
 115   1.0000       0.033616         0.9147
 116   1.0000       0.060536         1.6473
 117   0.0000       0.184773         5.0279
 118   0.0000       0.187437         5.1004
 119   0.0000       0.192604         5.2410
 120   0.0000       0.196584         5.3493
 121   0.0000       0.206764         5.6263

                 SPIN DOWN ORBITALS
  NO   OCC          E(Eh)            E(eV)
   0   1.0000    -196.642894     -5350.9252
   1   1.0000     -88.681909     -2413.1574
   2   1.0000     -88.681877     -2413.1565
   3   1.0000     -88.676304     -2413.0049
   4   1.0000     -88.676262     -2413.0038
   5   1.0000     -88.612380     -2411.2655
   6   1.0000     -88.612339     -2411.2643
   7   1.0000     -88.611557     -2411.2430
   8   1.0000     -88.611460     -2411.2404
   9   1.0000     -22.003410      -598.7432
  10   1.0000     -18.854497      -513.0570
  11   1.0000     -18.519741      -503.9478
  12   1.0000     -18.503791      -503.5137
  13   1.0000     -18.503036      -503.4932
  14   1.0000     -10.031140      -272.9612
  15   1.0000     -10.031121      -272.9607
  16   1.0000     -10.021206      -272.6909
  17   1.0000     -10.014910      -272.5196
  18   1.0000     -10.014883      -272.5188
  19   1.0000     -10.004050      -272.2240
  20   1.0000      -9.991580      -271.8847
  21   1.0000      -9.990864      -271.8652
  22   1.0000      -9.990279      -271.8493
  23   1.0000      -9.989557      -271.8297
  24   1.0000      -7.735058      -210.4816
  25   1.0000      -7.735043      -210.4812
  26   1.0000      -7.729975      -210.3433
  27   1.0000      -7.729920      -210.3418
  28   1.0000      -7.666785      -208.6238
  29   1.0000      -7.666739      -208.6226
  30   1.0000      -7.665918      -208.6002
  31   1.0000      -7.665826      -208.5977
  32   1.0000      -5.700373      -155.1150
  33   1.0000      -5.700355      -155.1145
  34   1.0000      -5.696546      -155.0109
  35   1.0000      -5.696538      -155.0107
  36   1.0000      -5.695223      -154.9749
  37   1.0000      -5.695171      -154.9735
  38   1.0000      -5.691329      -154.8689
  39   1.0000      -5.691273      -154.8674
  40   1.0000      -5.689702      -154.8247
  41   1.0000      -5.689684      -154.8242
  42   1.0000      -5.684725      -154.6892
  43   1.0000      -5.684675      -154.6879
  44   1.0000      -5.631644      -153.2448
  45   1.0000      -5.631588      -153.2433
  46   1.0000      -5.630773      -153.2211
  47   1.0000      -5.630688      -153.2188
  48   1.0000      -5.625458      -153.0765
  49   1.0000      -5.625420      -153.0755
  50   1.0000      -5.624777      -153.0580
  51   1.0000      -5.624734      -153.0568
  52   1.0000      -5.624614      -153.0535
  53   1.0000      -5.624520      -153.0510
  54   1.0000      -5.623899      -153.0341
  55   1.0000      -5.623806      -153.0315
  56   1.0000      -2.364969       -64.3541
  57   1.0000      -1.427296       -38.8387
  58   1.0000      -1.378344       -37.5066
  59   1.0000      -1.377528       -37.4845
  60   1.0000      -0.644188       -17.5292
  61   1.0000      -0.632214       -17.2034
  62   1.0000      -0.618077       -16.8187
  63   1.0000      -0.593662       -16.1544
  64   1.0000      -0.582974       -15.8635
  65   1.0000      -0.575877       -15.6704
  66   1.0000      -0.572545       -15.5797
  67   1.0000      -0.490911       -13.3584
  68   1.0000      -0.487469       -13.2647
  69   1.0000      -0.487230       -13.2582
  70   1.0000      -0.480390       -13.0721
  71   1.0000      -0.422370       -11.4933
  72   1.0000      -0.416769       -11.3409
  73   1.0000      -0.411703       -11.2030
  74   1.0000      -0.405925       -11.0458
  75   1.0000      -0.375705       -10.2234
  76   1.0000      -0.372737       -10.1427
  77   1.0000      -0.294953        -8.0261
  78   1.0000      -0.292476        -7.9587
  79   1.0000      -0.278537        -7.5794
  80   1.0000      -0.266226        -7.2444
  81   1.0000      -0.257006        -6.9935
  82   1.0000      -0.250583        -6.8187
  83   1.0000      -0.241964        -6.5842
  84   1.0000      -0.212219        -5.7748
  85   1.0000      -0.206143        -5.6094
  86   1.0000      -0.193049        -5.2531
  87   1.0000      -0.192768        -5.2455
  88   1.0000      -0.184852        -5.0301
  89   1.0000      -0.179326        -4.8797
  90   1.0000      -0.170773        -4.6470
  91   1.0000      -0.167649        -4.5620
  92   1.0000      -0.157445        -4.2843
  93   1.0000      -0.154855        -4.2138
  94   1.0000      -0.148446        -4.0394
  95   1.0000      -0.145409        -3.9568
  96   1.0000      -0.141385        -3.8473
  97   1.0000      -0.095628        -2.6022
  98   1.0000      -0.088633        -2.4118
  99   1.0000      -0.084864        -2.3093
 100   1.0000      -0.080285        -2.1847
 101   1.0000      -0.079534        -2.1642
 102   1.0000      -0.069989        -1.9045
 103   1.0000      -0.062006        -1.6873
 104   1.0000      -0.045638        -1.2419
 105   1.0000      -0.038568        -1.0495
 106   1.0000      -0.036631        -0.9968
 107   1.0000      -0.034686        -0.9439
 108   1.0000      -0.031041        -0.8447
 109   1.0000      -0.011933        -0.3247
 110   1.0000      -0.004881        -0.1328
 111   1.0000      -0.002721        -0.0740
 112   1.0000       0.007672         0.2088
 113   1.0000       0.011663         0.3174
 114   1.0000       0.033928         0.9232
 115   1.0000       0.059555         1.6206
 116   0.0000       0.185011         5.0344
 117   0.0000       0.185716         5.0536
 118   0.0000       0.188127         5.1192
 119   0.0000       0.193708         5.2711
 120   0.0000       0.196872         5.3572

MULLIKEN ATOMIC CHARGES AND SPIN POPULATIONS
--------------------------------------------
   0 V :    0.435423    1.223306
   1 S :   -0.252071   -0.026146
   2 S :   -0.249483   -0.025515
   3 S :   -0.252230   -0.026046
   4 S :   -0.249778   -0.025449
   5 O :   -0.522635   -0.156521
   6 C :   -0.116862    0.008996
   7 C :   -0.115149    0.008998
   8 C :   -0.104126    0.009050
   9 C :   -0.104492    0.008991
  10 S :   -0.044149   -0.000193
  11 S :   -0.044006   -0.000228
  12 S :   -0.049408   -0.000253
  13 S :   -0.049422   -0.000283
  14 C :   -0.341231    0.000269
  15 C :   -0.280502    0.000319
  16 C :   -0.339728    0.000255
  17 C :   -0.280012    0.000335
  18 C :   -0.081339    0.000145
  19 H :    0.147030   -0.000097
  20 H :    0.102199    0.000018
  21 H :    0.044746    0.000042
  22 H :    0.077633    0.000016
  23 H :    0.102307    0.000018
  24 H :    0.147462   -0.000098
  25 C :   -0.126160    0.000080
  26 H :    0.076779    0.000048
  27 H :    0.131769   -0.000086
  28 H :    0.096699    0.000052
  29 H :    0.031920    0.000010
  30 H :    0.131865   -0.000081
  31 H :    0.076951    0.000046
Sum of atomic charges         :   -2.0000000

LOEWDIN ATOMIC CHARGES AND SPIN POPULATIONS
-------------------------------------------
   0 V :   -0.235529    1.175653
   1 S :    0.088988   -0.018039
   2 S :    0.092180   -0.017435
   3 S :    0.088831   -0.017947
   4 S :    0.091844   -0.017411
   5 O :   -0.384186   -0.141430
   6 C :   -0.553248    0.010085
   7 C :   -0.552706    0.010036
   8 C :   -0.548230    0.010128
   9 C :   -0.548582    0.010156
  10 S :    0.337362   -0.001068
  11 S :    0.337241   -0.001088
  12 S :    0.342119   -0.001158
  13 S :    0.342191   -0.001171
  14 C :   -0.294200    0.000170
  15 C :   -0.298463    0.000214
  16 C :   -0.294222    0.000163
  17 C :   -0.298554    0.000223
  18 C :   -0.185490   -0.000040
  19 H :    0.065760   -0.000027
  20 H :    0.047628    0.000003
  21 H :    0.046984    0.000016
  22 H :    0.053418    0.000013
  23 H :    0.047650    0.000004
  24 H :    0.065910   -0.000028
  25 C :   -0.191236   -0.000028
  26 H :    0.042734    0.000017
  27 H :    0.073663   -0.000031
  28 H :    0.059149    0.000009
  29 H :    0.044500    0.000025
  30 H :    0.073773   -0.000030
  31 H :    0.042721    0.000016

  Mayer bond orders larger than 0.100000
B(  0-V ,  1-S ) :   0.7986 B(  0-V ,  2-S ) :   0.7975 B(  0-V ,  3-S ) :   0.8007
B(  0-V ,  4-S ) :   0.7949 B(  0-V ,  5-O ) :   2.0890 B(  1-S ,  8-C ) :   1.1327
B(  2-S ,  6-C ) :   1.1357 B(  3-S ,  9-C ) :   1.1317 B(  4-S ,  7-C ) :   1.1370
B(  6-C ,  7-C ) :   1.5153 B(  6-C , 10-S ) :   0.9549 B(  7-C , 11-S ) :   0.9545
B(  8-C ,  9-C ) :   1.5570 B(  8-C , 13-S ) :   0.9324 B(  9-C , 12-S ) :   0.9327
B( 10-S , 16-C ) :   1.0040 B( 11-S , 14-C ) :   1.0039 B( 12-S , 15-C ) :   1.0147
B( 13-S , 17-C ) :   1.0149 B( 14-C , 18-C ) :   0.8765 B( 14-C , 23-H ) :   0.9695
B( 14-C , 24-H ) :   0.9769 B( 15-C , 25-C ) :   0.9088 B( 15-C , 30-H ) :   0.9334
B( 15-C , 31-H ) :   0.9813 B( 16-C , 18-C ) :   0.8768 B( 16-C , 19-H ) :   0.9768
B( 16-C , 20-H ) :   0.9694 B( 17-C , 25-C ) :   0.9090 B( 17-C , 26-H ) :   0.9814
B( 17-C , 27-H ) :   0.9332 B( 18-C , 21-H ) :   0.9516 B( 18-C , 22-H ) :   0.9744
B( 25-C , 28-H ) :   0.9466 B( 25-C , 29-H ) :   0.9761

FINAL SINGLE POINT ENERGY     -4592.673404088892

DIPOLE MOMENT
-------------
                                X             Y             Z
Electronic contribution:     10.71736     -23.52403       7.58066
Nuclear contribution   :    -12.03001      26.15993      -8.50575
                        -----------------------------------------
Total Dipole Moment    :     -1.31265       2.63590      -0.92508
                        -----------------------------------------
Magnitude (a.u.)       :      3.08655
Magnitude (Debye)      :      7.84539

Rotational constants in cm-1:     0.012719     0.002547     0.002430
Rotational constants in MHz :   381.298149    76.348736    72.845126

                             ****ORCA TERMINATED NORMALLY****
TOTAL RUN TIME: 0 days 0 hours 43 minutes 14 seconds 421 msec
