                         Program Version 5.0.4 -  RELEASE  -
|  1> ! nofrozencore ReducedPop printbasis
|  2> ! B3LYP TZVP
|  3>
|  4> %basis
|  5> newgto V "CP(PPP)" end
|  6> end
|  7>
|  8> %pal
|  9> nprocs 4
| 10> end
| 11>
| 12> % sym SymThresh 1e-2 end
| 13> * xyz -2 2
| 14> V 0.5743535228708367 -0.931917003927429 0.21063148784021654
| 15> S -1.4971064772009786 -1.4689640140976863 -0.9905199637210188
| 16> S 1.4190188886713735 -0.12887397049679122 -1.9477852502114428
| 17> S -0.9723254602016502 -0.4371531618089925 2.0482443443625202
| 18> S 1.9574246550097332 0.883365061255887 1.1136719158753217
| 19> O 1.2964620818192945 -2.321038433081248 0.5486666744850902
| 20> C 2.693224377235432 1.024836591493529 -1.533289665241942
| 21> C 2.9160099442713414 1.4465287953721262 -0.26076188502907
| 22> C -2.6509925377329533 -1.758301385740333 0.31923174160290496
| 23> C -2.431633212888116 -1.3274547425357779 1.5901070733066027
| 24> S 3.6496733851246748 1.637008571065287 -2.93802352926953
| 25> S 4.18695468558758 2.663769917663376 0.1472941579353016
| 26> S -3.6064167644909575 -1.5974083799658245 2.9331524117143206
| 27> S -4.14343364922164 -2.6479503690474138 -0.16951157761495395
| 28> C 3.5268779199490705 4.2074120082367905 -0.6306725847114146
| 29> C -5.063561653097546 -0.5685181507647366 2.442994214129884
| 30> C 3.106427988298346 3.4018841191187215 -3.053831638692372
| 31> C -5.481017495842593 -1.3860902545956377 0.02927442519320316
| 32> C 3.815167478181332 4.386438339519523 -2.122087329256906
| 33> H 2.0241347505916214 3.415296089799042 -2.8936455932521814
| 34> H 3.2954150828272843 3.687857478012427 -4.094034300056763
| 35> H 3.502442650212783 5.406767755228285 -2.406930327395283
| 36> H 4.89848306814178 4.326412392464318 -2.290127820278484
| 37> H 3.991287430315828 5.026689149704147 -0.07139699686586565
| 38> H 2.451481500072343 4.232118799561073 -0.43056728025454694
| 39> C -6.031510551243209 -1.200899798703731 1.443230953667909
| 40> H -6.284799847102232 -1.7298759674114592 -0.6305587301061071
| 41> H -5.09931406379327 -0.44223355914061135 -0.3722790221540778
| 42> H -6.36865175167487 -2.1713137010488945 1.830403679251376
| 43> H -6.923698520347435 -0.5529290992091668 1.3778780493162213
| 44> H -4.676801534573052 0.3843723002326626 2.0683564989237224
| 45> H -5.590645298376014 -0.37005401693279794 3.382441419051641
| 46> *
| 47>
| 48> % eprnmr
| 49> gtensor true
| 50> Nuclei = all H {aiso,adip,aorb,fgrad,rho}
| 51> Nuclei = all V {aiso,adip,aorb,fgrad,rho}
| 52> end
| 53>
| 54>                          ****END OF INPUT****

CARTESIAN COORDINATES (ANGSTROEM)
---------------------------------
  V      0.575038   -0.932867    0.210824
  S     -1.496422   -1.469914   -0.990327
  S      1.419704   -0.129824   -1.947593
  S     -0.971641   -0.438103    2.048437
  S      1.958110    0.882415    1.113864
  O      1.297147   -2.321988    0.548859
  C      2.693909    1.023887   -1.533097
  C      2.916695    1.445579   -0.260569
  C     -2.650308   -1.759251    0.319424
  C     -2.430948   -1.328405    1.590300
  S      3.650358    1.636059   -2.937831
  S      4.187640    2.662820    0.147487
  S     -3.605732   -1.598358    2.933345
  S     -4.142749   -2.648900   -0.169319
  C      3.527563    4.206462   -0.630480
  C     -5.062877   -0.569468    2.443187
  C      3.107113    3.400934   -3.053639
  C     -5.480333   -1.387040    0.029467
  C      3.815852    4.385488   -2.121895
  H      2.024820    3.414346   -2.893453
  H      3.296100    3.686908   -4.093842
  H      3.503128    5.405818   -2.406738
  H      4.899168    4.325462   -2.289935
  H      3.991972    5.025739   -0.071205
  H      2.452166    4.231169   -0.430375
  C     -6.030826   -1.201850    1.443423
  H     -6.284115   -1.730826   -0.630366
  H     -5.098629   -0.443183   -0.372087
  H     -6.367967   -2.172264    1.830596
  H     -6.923014   -0.553879    1.378071
  H     -4.676117    0.383422    2.068549
  H     -5.589960   -0.371004    3.382634

 Total Charge           Charge          ....   -2
 Multiplicity           Mult            ....    2
 Number of Electrons    NEL             ....  233
 Basis Dimension        Dim             ....  517

ORBITAL ENERGIES
----------------
                 SPIN UP ORBITALS
  NO   OCC          E(Eh)            E(eV)
   0   1.0000    -196.641046     -5350.8749
   1   1.0000     -88.677099     -2413.0265
   2   1.0000     -88.677094     -2413.0264
   3   1.0000     -88.676371     -2413.0067
   4   1.0000     -88.676275     -2413.0041
   5   1.0000     -88.612286     -2411.2629
   6   1.0000     -88.612264     -2411.2623
   7   1.0000     -88.612151     -2411.2592
   8   1.0000     -88.612106     -2411.2580
   9   1.0000     -22.016742      -599.1060
  10   1.0000     -18.856885      -513.1219
  11   1.0000     -18.523608      -504.0530
  12   1.0000     -18.517781      -503.8944
  13   1.0000     -18.517745      -503.8935
  14   1.0000     -10.016425      -272.5608
  15   1.0000     -10.016411      -272.5604
  16   1.0000     -10.015399      -272.5329
  17   1.0000     -10.015388      -272.5326
  18   1.0000     -10.005811      -272.2720
  19   1.0000     -10.005124      -272.2533
  20   1.0000      -9.992141      -271.9000
  21   1.0000      -9.992046      -271.8974
  22   1.0000      -9.991423      -271.8804
  23   1.0000      -9.991329      -271.8779
  24   1.0000      -7.730636      -210.3613
  25   1.0000      -7.730619      -210.3608
  26   1.0000      -7.729943      -210.3425
  27   1.0000      -7.729884      -210.3408
  28   1.0000      -7.666695      -208.6214
  29   1.0000      -7.666654      -208.6203
  30   1.0000      -7.666491      -208.6158
  31   1.0000      -7.666469      -208.6152
  32   1.0000      -5.695907      -154.9935
  33   1.0000      -5.695892      -154.9931
  34   1.0000      -5.695186      -154.9739
  35   1.0000      -5.695130      -154.9724
  36   1.0000      -5.691967      -154.8863
  37   1.0000      -5.691956      -154.8860
  38   1.0000      -5.691338      -154.8692
  39   1.0000      -5.691274      -154.8674
  40   1.0000      -5.685396      -154.7075
  41   1.0000      -5.685377      -154.7070
  42   1.0000      -5.684680      -154.6880
  43   1.0000      -5.684608      -154.6860
  44   1.0000      -5.631524      -153.2416
  45   1.0000      -5.631502      -153.2410
  46   1.0000      -5.631354      -153.2369
  47   1.0000      -5.631342      -153.2366
  48   1.0000      -5.625124      -153.0674
  49   1.0000      -5.625080      -153.0662
  50   1.0000      -5.624956      -153.0628
  51   1.0000      -5.624954      -153.0628
  52   1.0000      -5.624712      -153.0562
  53   1.0000      -5.624678      -153.0553
  54   1.0000      -5.624425      -153.0484
  55   1.0000      -5.624417      -153.0482
  56   1.0000      -2.410114       -65.5825
  57   1.0000      -1.451013       -39.4841
  58   1.0000      -1.439889       -39.1814
  59   1.0000      -1.438846       -39.1530
  60   1.0000      -0.643436       -17.5088
  61   1.0000      -0.642764       -17.4905
  62   1.0000      -0.617643       -16.8069
  63   1.0000      -0.593754       -16.1569
  64   1.0000      -0.593084       -16.1386
  65   1.0000      -0.575413       -15.6578
  66   1.0000      -0.574593       -15.6355
  67   1.0000      -0.491247       -13.3675
  68   1.0000      -0.489307       -13.3147
  69   1.0000      -0.487383       -13.2624
  70   1.0000      -0.486101       -13.2275
  71   1.0000      -0.423046       -11.5117
  72   1.0000      -0.420246       -11.4355
  73   1.0000      -0.412334       -11.2202
  74   1.0000      -0.407261       -11.0821
  75   1.0000      -0.376253       -10.2384
  76   1.0000      -0.373088       -10.1522
  77   1.0000      -0.292965        -7.9720
  78   1.0000      -0.291724        -7.9382
  79   1.0000      -0.277889        -7.5617
  80   1.0000      -0.276615        -7.5271
  81   1.0000      -0.260202        -7.0805
  82   1.0000      -0.255509        -6.9528
  83   1.0000      -0.242106        -6.5880
  84   1.0000      -0.238950        -6.5022
  85   1.0000      -0.195142        -5.3101
  86   1.0000      -0.192320        -5.2333
  87   1.0000      -0.191996        -5.2245
  88   1.0000      -0.190950        -5.1960
  89   1.0000      -0.185085        -5.0364
  90   1.0000      -0.184085        -5.0092
  91   1.0000      -0.180696        -4.9170
  92   1.0000      -0.150935        -4.1071
  93   1.0000      -0.149681        -4.0730
  94   1.0000      -0.143478        -3.9042
  95   1.0000      -0.143398        -3.9021
  96   1.0000      -0.141874        -3.8606
  97   1.0000      -0.096651        -2.6300
  98   1.0000      -0.096260        -2.6194
  99   1.0000      -0.089117        -2.4250
 100   1.0000      -0.083234        -2.2649
 101   1.0000      -0.081875        -2.2279
 102   1.0000      -0.078694        -2.1414
 103   1.0000      -0.069057        -1.8791
 104   1.0000      -0.050020        -1.3611
 105   1.0000      -0.038364        -1.0439
 106   1.0000      -0.038021        -1.0346
 107   1.0000      -0.035794        -0.9740
 108   1.0000      -0.031618        -0.8604
 109   1.0000      -0.013364        -0.3637
 110   1.0000      -0.004926        -0.1340
 111   1.0000      -0.003437        -0.0935
 112   1.0000       0.005966         0.1623
 113   1.0000       0.011873         0.3231
 114   1.0000       0.015532         0.4226
 115   1.0000       0.033908         0.9227
 116   1.0000       0.059540         1.6202
 117   0.0000       0.187780         5.1097
 118   0.0000       0.195038         5.3072
 119   0.0000       0.195857         5.3296
 120   0.0000       0.196728         5.3532
 121   0.0000       0.210371         5.7245

                 SPIN DOWN ORBITALS
  NO   OCC          E(Eh)            E(eV)
   0   1.0000    -196.641187     -5350.8787
   1   1.0000     -88.677113     -2413.0269
   2   1.0000     -88.677108     -2413.0268
   3   1.0000     -88.676384     -2413.0071
   4   1.0000     -88.676288     -2413.0045
   5   1.0000     -88.612438     -2411.2670
   6   1.0000     -88.612417     -2411.2664
   7   1.0000     -88.612308     -2411.2635
   8   1.0000     -88.612262     -2411.2622
   9   1.0000     -22.002020      -598.7054
  10   1.0000     -18.860516      -513.2207
  11   1.0000     -18.518434      -503.9122
  12   1.0000     -18.502246      -503.4717
  13   1.0000     -18.501562      -503.4531
  14   1.0000     -10.016417      -272.5606
  15   1.0000     -10.016404      -272.5602
  16   1.0000     -10.015399      -272.5329
  17   1.0000     -10.015388      -272.5326
  18   1.0000     -10.005812      -272.2720
  19   1.0000     -10.005122      -272.2532
  20   1.0000      -9.991893      -271.8932
  21   1.0000      -9.991798      -271.8906
  22   1.0000      -9.991177      -271.8738
  23   1.0000      -9.991083      -271.8712
  24   1.0000      -7.730651      -210.3617
  25   1.0000      -7.730634      -210.3612
  26   1.0000      -7.729957      -210.3428
  27   1.0000      -7.729898      -210.3412
  28   1.0000      -7.666837      -208.6252
  29   1.0000      -7.666795      -208.6241
  30   1.0000      -7.666637      -208.6198
  31   1.0000      -7.666615      -208.6192
  32   1.0000      -5.695924      -154.9940
  33   1.0000      -5.695910      -154.9936
  34   1.0000      -5.695203      -154.9743
  35   1.0000      -5.695146      -154.9728
  36   1.0000      -5.691988      -154.8869
  37   1.0000      -5.691977      -154.8866
  38   1.0000      -5.691358      -154.8697
  39   1.0000      -5.691294      -154.8680
  40   1.0000      -5.685415      -154.7080
  41   1.0000      -5.685397      -154.7075
  42   1.0000      -5.684696      -154.6884
  43   1.0000      -5.684624      -154.6865
  44   1.0000      -5.631693      -153.2462
  45   1.0000      -5.631670      -153.2455
  46   1.0000      -5.631518      -153.2414
  47   1.0000      -5.631507      -153.2411
  48   1.0000      -5.625502      -153.0777
  49   1.0000      -5.625458      -153.0765
  50   1.0000      -5.625360      -153.0738
  51   1.0000      -5.625358      -153.0738
  52   1.0000      -5.624832      -153.0595
  53   1.0000      -5.624796      -153.0585
  54   1.0000      -5.624540      -153.0515
  55   1.0000      -5.624533      -153.0513
  56   1.0000      -2.365787       -64.3763
  57   1.0000      -1.432009       -38.9670
  58   1.0000      -1.378391       -37.5079
  59   1.0000      -1.377692       -37.4889
  60   1.0000      -0.643384       -17.5074
  61   1.0000      -0.642718       -17.4892
  62   1.0000      -0.625482       -17.0202
  63   1.0000      -0.593565       -16.1517
  64   1.0000      -0.592887       -16.1333
  65   1.0000      -0.575406       -15.6576
  66   1.0000      -0.574594       -15.6355
  67   1.0000      -0.491275       -13.3683
  68   1.0000      -0.489346       -13.3158
  69   1.0000      -0.487390       -13.2625
  70   1.0000      -0.486123       -13.2281
  71   1.0000      -0.423285       -11.5182
  72   1.0000      -0.420550       -11.4438
  73   1.0000      -0.412342       -11.2204
  74   1.0000      -0.407351       -11.0846
  75   1.0000      -0.376207       -10.2371
  76   1.0000      -0.373109       -10.1528
  77   1.0000      -0.292944        -7.9714
  78   1.0000      -0.291710        -7.9378
  79   1.0000      -0.277864        -7.5611
  80   1.0000      -0.276604        -7.5268
  81   1.0000      -0.260015        -7.0754
  82   1.0000      -0.255474        -6.9518
  83   1.0000      -0.242006        -6.5853
  84   1.0000      -0.238875        -6.5001
  85   1.0000      -0.194729        -5.2988
  86   1.0000      -0.192277        -5.2321
  87   1.0000      -0.191942        -5.2230
  88   1.0000      -0.190927        -5.1954
  89   1.0000      -0.185022        -5.0347
  90   1.0000      -0.184041        -5.0080
  91   1.0000      -0.178616        -4.8604
  92   1.0000      -0.150274        -4.0892
  93   1.0000      -0.149391        -4.0651
  94   1.0000      -0.143211        -3.8970
  95   1.0000      -0.143161        -3.8956
  96   1.0000      -0.141795        -3.8584
  97   1.0000      -0.095791        -2.6066
  98   1.0000      -0.095188        -2.5902
  99   1.0000      -0.089217        -2.4277
 100   1.0000      -0.083234        -2.2649
 101   1.0000      -0.081870        -2.2278
 102   1.0000      -0.080236        -2.1833
 103   1.0000      -0.070442        -1.9168
 104   1.0000      -0.045898        -1.2490
 105   1.0000      -0.038304        -1.0423
 106   1.0000      -0.037572        -1.0224
 107   1.0000      -0.034746        -0.9455
 108   1.0000      -0.031527        -0.8579
 109   1.0000      -0.012489        -0.3398
 110   1.0000      -0.005965        -0.1623
 111   1.0000      -0.002774        -0.0755
 112   1.0000       0.007010         0.1907
 113   1.0000       0.012672         0.3448
 114   1.0000       0.034252         0.9320
 115   1.0000       0.058121         1.5816
 116   0.0000       0.185714         5.0535
 117   0.0000       0.189130         5.1465
 118   0.0000       0.195701         5.3253
 119   0.0000       0.195971         5.3326
 120   0.0000       0.197028         5.3614

MULLIKEN ATOMIC CHARGES AND SPIN POPULATIONS
--------------------------------------------
   0 V :    0.449289    1.200410
   1 S :   -0.256327   -0.025264
   2 S :   -0.252877   -0.021967
   3 S :   -0.256199   -0.025246
   4 S :   -0.252753   -0.021941
   5 O :   -0.508462   -0.140677
   6 C :   -0.119264    0.008194
   7 C :   -0.117817    0.008062
   8 C :   -0.112853    0.009180
   9 C :   -0.112990    0.009004
  10 S :   -0.047530    0.000000
  11 S :   -0.047408   -0.000026
  12 S :   -0.042255   -0.000538
  13 S :   -0.042179   -0.000566
  14 C :   -0.337847    0.000083
  15 C :   -0.337607    0.000685
  16 C :   -0.337141    0.000084
  17 C :   -0.337912    0.000711
  18 C :   -0.085717    0.000047
  19 H :    0.149243   -0.000085
  20 H :    0.101945   -0.000032
  21 H :    0.045424    0.000066
  22 H :    0.077573    0.000072
  23 H :    0.101922   -0.000034
  24 H :    0.149517   -0.000084
  25 C :   -0.082664   -0.000056
  26 H :    0.101338    0.000113
  27 H :    0.143907   -0.000152
  28 H :    0.079139   -0.000025
  29 H :    0.043106    0.000021
  30 H :    0.143912   -0.000148
  31 H :    0.101486    0.000108
Sum of atomic charges         :   -2.0000000

LOEWDIN ATOMIC CHARGES AND SPIN POPULATIONS
-------------------------------------------
   0 V :   -0.236937    1.154720
   1 S :    0.085348   -0.016807
   2 S :    0.088069   -0.015010
   3 S :    0.085397   -0.016771
   4 S :    0.088171   -0.015010
   5 O :   -0.354279   -0.126130
   6 C :   -0.553159    0.009812
   7 C :   -0.552754    0.009674
   8 C :   -0.551524    0.009687
   9 C :   -0.552007    0.009592
  10 S :    0.333070   -0.000989
  11 S :    0.332938   -0.001005
  12 S :    0.337832   -0.001199
  13 S :    0.337838   -0.001214
  14 C :   -0.292447    0.000043
  15 C :   -0.294514    0.000313
  16 C :   -0.292490    0.000044
  17 C :   -0.294567    0.000330
  18 C :   -0.184845    0.000002
  19 H :    0.067333   -0.000032
  20 H :    0.047217   -0.000030
  21 H :    0.047341    0.000006
  22 H :    0.053528    0.000031
  23 H :    0.047249   -0.000031
  24 H :    0.067434   -0.000032
  25 C :   -0.185469   -0.000072
  26 H :    0.047395    0.000058
  27 H :    0.065299   -0.000029
  28 H :    0.054073   -0.000005
  29 H :    0.046731    0.000028
  30 H :    0.065313   -0.000029
  31 H :    0.047415    0.000056

  Mayer bond orders larger than 0.100000
B(  0-V ,  1-S ) :   0.7896 B(  0-V ,  2-S ) :   0.7888 B(  0-V ,  3-S ) :   0.7919
B(  0-V ,  4-S ) :   0.7868 B(  0-V ,  5-O ) :   2.1064 B(  1-S ,  8-C ) :   1.1298
B(  2-S ,  6-C ) :   1.1414 B(  3-S ,  9-C ) :   1.1281 B(  4-S ,  7-C ) :   1.1422
B(  6-C ,  7-C ) :   1.5230 B(  6-C , 10-S ) :   0.9507 B(  7-C , 11-S ) :   0.9504
B(  8-C ,  9-C ) :   1.5174 B(  8-C , 13-S ) :   0.9560 B(  9-C , 12-S ) :   0.9562
B( 10-S , 16-C ) :   1.0032 B( 11-S , 14-C ) :   1.0031 B( 12-S , 15-C ) :   1.0055
B( 13-S , 17-C ) :   1.0061 B( 14-C , 18-C ) :   0.8787 B( 14-C , 23-H ) :   0.9697
B( 14-C , 24-H ) :   0.9749 B( 15-C , 25-C ) :   0.8780 B( 15-C , 30-H ) :   0.9750
B( 15-C , 31-H ) :   0.9703 B( 16-C , 18-C ) :   0.8787 B( 16-C , 19-H ) :   0.9748
B( 16-C , 20-H ) :   0.9697 B( 17-C , 25-C ) :   0.8780 B( 17-C , 26-H ) :   0.9705
B( 17-C , 27-H ) :   0.9749 B( 18-C , 21-H ) :   0.9530 B( 18-C , 22-H ) :   0.9737
B( 25-C , 28-H ) :   0.9733 B( 25-C , 29-H ) :   0.9517

FINAL SINGLE POINT ENERGY     -4592.724017638261

DIPOLE MOMENT
-------------
                                X             Y             Z
Electronic contribution:     14.82689     -21.69275       4.67747
Nuclear contribution   :    -16.52762      24.20171      -5.22057
                        -----------------------------------------
Total Dipole Moment    :     -1.70073       2.50896      -0.54310
                        -----------------------------------------
Magnitude (a.u.)       :      3.07934
Magnitude (Debye)      :      7.82706

Rotational constants in cm-1:     0.012752     0.002547     0.002431
Rotational constants in MHz :   382.290263    76.356652    72.865753

                             ****ORCA TERMINATED NORMALLY****
TOTAL RUN TIME: 0 days 0 hours 43 minutes 24 seconds 616 msec
