                         Program Version 5.0.4 -  RELEASE  -
|  1> ! nofrozencore ReducedPop printbasis
|  2> ! B3LYP TZVP
|  3>
|  4> %basis
|  5> newgto V "CP(PPP)" end
|  6> end
|  7>
|  8> %pal
|  9> nprocs 8
| 10> end
| 11>
| 12> % sym SymThresh 1e-2 end
| 13> * xyz -2 2
| 14> V -0.08632315931887675 -0.9180415860081119 -0.6276167607369313
| 15> S -1.915487993401318 0.5897492933849318 -1.2749075129876541
| 16> S 1.4455607879754835 0.6251254190760781 -1.7684923688762861
| 17> S -1.437569795116543 -1.2383721327381527 1.3825400024231271
| 18> S 1.8060275853995789 -1.2299977652871692 0.8889337735688398
| 19> O -0.21192150754285194 -2.244387210589645 -1.507689922418863
| 20> C 2.7693831055859905 0.22852929935698055 -1.1396358090400212
| 21> C 3.4260465724262414 -0.47301800790809134 -0.06156289384899895
| 22> C -2.9833929472440035 0.17184735464074402 -0.2865729837628064
| 23> C -3.2868766944603323 -0.5292959527720628 0.941825259997647
| 24> S 4.409073496190122 0.9814417656113582 -2.0331481256832897
| 25> S 4.8012693612213395 -0.8936898395970336 0.6633378731116264
| 26> S -4.375802459692625 -0.9707390196734041 2.039899222466024
| 27> S -4.833122938782536 0.8850147365652936 -0.6603157020473824
| 28> C 5.379389960133287 0.7644202671450355 1.2641505897068195
| 29> C -4.785003661272765 0.6813821101879551 2.778458565847445
| 30> C 5.069557153205907 2.2199237725379226 -0.8490183939025174
| 31> C -5.139768878748485 2.1217788355921967 0.6609443261248065
| 32> C 6.018865134417368 1.6833074148290994 0.22162235989940024
| 33> H 4.223569320184416 2.7050657671547524 -0.3549287181018549
| 34> H 5.567807400350652 2.9852363768337855 -1.4531093696032686
| 35> H 6.458320563128872 2.542215539195221 0.7542186566043801
| 36> H 6.8481618711497765 1.1384885562971274 -0.24369213181979887
| 37> H 6.140160226369671 0.5059624462135295 2.009623619188075
| 38> H 4.525962833192013 1.212750519017515 1.7781923995061022
| 39> C -5.720278588639026 1.5787482176752925 1.9660349868819758
| 40> H -5.809522695522221 2.8717963589735156 0.2275197132485139
| 41> H -4.196027938713965 2.627973516714598 0.8811810178184362
| 42> H -6.63853334138236 1.0141535525423586 1.7679058277717945
| 43> H -6.0010182711627085 2.434714649763759 2.6007727140081034
| 44> H -3.8276399490002087 1.1489710447295134 3.0203486350255746
| 45> H -5.290006111373075 0.41481470957918704 3.7140891482475547
| 46> *
| 47>
| 48> % eprnmr
| 49> gtensor true
| 50> Nuclei = all H {aiso,adip,aorb,fgrad,rho}
| 51> Nuclei = all V {aiso,adip,aorb,fgrad,rho}
| 52> end
| 53>
| 54>                          ****END OF INPUT****

CARTESIAN COORDINATES (ANGSTROEM)
---------------------------------
  V     -0.086334   -0.919017   -0.628293
  S     -1.915499    0.588774   -1.275584
  S      1.445550    0.624150   -1.769169
  S     -1.437581   -1.239347    1.381864
  S      1.806017   -1.230973    0.888257
  O     -0.211933   -2.245362   -1.508366
  C      2.769372    0.227554   -1.140312
  C      3.426036   -0.473993   -0.062239
  C     -2.983404    0.170872   -0.287249
  C     -3.286888   -0.530271    0.941149
  S      4.409062    0.980467   -2.033825
  S      4.801258   -0.894665    0.662661
  S     -4.375813   -0.971714    2.039223
  S     -4.833134    0.884040   -0.660992
  C      5.379379    0.763445    1.263474
  C     -4.785015    0.680407    2.777782
  C      5.069546    2.218949   -0.849695
  C     -5.139780    2.120804    0.660268
  C      6.018854    1.682332    0.220946
  H      4.223558    2.704091   -0.355605
  H      5.567796    2.984261   -1.453786
  H      6.458310    2.541240    0.753542
  H      6.848151    1.137513   -0.244369
  H      6.140149    0.504987    2.008947
  H      4.525952    1.211775    1.777516
  C     -5.720290    1.577773    1.965359
  H     -5.809534    2.870821    0.226843
  H     -4.196039    2.626998    0.880505
  H     -6.638544    1.013178    1.767229
  H     -6.001029    2.433739    2.600096
  H     -3.827651    1.147996    3.019672
  H     -5.290017    0.413840    3.713413

 Total Charge           Charge          ....   -2
 Multiplicity           Mult            ....    2
 Number of Electrons    NEL             ....  233
 Basis Dimension        Dim             ....  517

ORBITAL ENERGIES
----------------
                 SPIN UP ORBITALS
  NO   OCC          E(Eh)            E(eV)
   0   1.0000    -196.645350     -5350.9920
   1   1.0000     -88.685659     -2413.2595
   2   1.0000     -88.685483     -2413.2547
   3   1.0000     -88.655542     -2412.4399
   4   1.0000     -88.654869     -2412.4216
   5   1.0000     -88.640523     -2412.0313
   6   1.0000     -88.640219     -2412.0230
   7   1.0000     -88.595400     -2410.8034
   8   1.0000     -88.595088     -2410.7949
   9   1.0000     -22.020192      -599.1999
  10   1.0000     -18.863555      -513.3034
  11   1.0000     -18.527150      -504.1494
  12   1.0000     -18.521240      -503.9886
  13   1.0000     -18.521188      -503.9871
  14   1.0000     -10.017780      -272.5976
  15   1.0000     -10.017392      -272.5871
  16   1.0000     -10.011087      -272.4155
  17   1.0000     -10.010710      -272.4053
  18   1.0000     -10.010225      -272.3921
  19   1.0000     -10.009880      -272.3827
  20   1.0000     -10.001835      -272.1638
  21   1.0000     -10.001565      -272.1564
  22   1.0000      -9.990365      -271.8517
  23   1.0000      -9.990233      -271.8481
  24   1.0000      -7.741282      -210.6510
  25   1.0000      -7.741163      -210.6477
  26   1.0000      -7.709346      -209.7820
  27   1.0000      -7.708706      -209.7646
  28   1.0000      -7.702461      -209.5946
  29   1.0000      -7.701927      -209.5801
  30   1.0000      -7.647573      -208.1010
  31   1.0000      -7.647255      -208.0924
  32   1.0000      -5.706363      -155.2780
  33   1.0000      -5.706252      -155.2750
  34   1.0000      -5.702228      -155.1655
  35   1.0000      -5.702094      -155.1619
  36   1.0000      -5.696205      -155.0016
  37   1.0000      -5.696092      -154.9985
  38   1.0000      -5.674251      -154.4042
  39   1.0000      -5.673600      -154.3865
  40   1.0000      -5.670630      -154.3057
  41   1.0000      -5.669985      -154.2881
  42   1.0000      -5.666096      -154.1823
  43   1.0000      -5.665591      -154.1686
  44   1.0000      -5.664432      -154.1370
  45   1.0000      -5.663803      -154.1199
  46   1.0000      -5.660880      -154.0404
  47   1.0000      -5.660353      -154.0260
  48   1.0000      -5.660069      -154.0183
  49   1.0000      -5.659553      -154.0043
  50   1.0000      -5.612475      -152.7232
  51   1.0000      -5.612137      -152.7140
  52   1.0000      -5.606781      -152.5683
  53   1.0000      -5.606480      -152.5601
  54   1.0000      -5.605124      -152.5232
  55   1.0000      -5.604824      -152.5150
  56   1.0000      -2.414680       -65.7068
  57   1.0000      -1.456557       -39.6349
  58   1.0000      -1.444238       -39.2997
  59   1.0000      -1.443785       -39.2874
  60   1.0000      -0.646742       -17.5988
  61   1.0000      -0.646546       -17.5934
  62   1.0000      -0.624501       -16.9935
  63   1.0000      -0.610315       -16.6075
  64   1.0000      -0.609170       -16.5764
  65   1.0000      -0.588456       -16.0127
  66   1.0000      -0.588256       -16.0073
  67   1.0000      -0.531250       -14.4560
  68   1.0000      -0.530621       -14.4389
  69   1.0000      -0.456917       -12.4334
  70   1.0000      -0.455792       -12.4027
  71   1.0000      -0.433072       -11.7845
  72   1.0000      -0.431467       -11.7408
  73   1.0000      -0.397358       -10.8127
  74   1.0000      -0.392208       -10.6725
  75   1.0000      -0.363868        -9.9013
  76   1.0000      -0.357041        -9.7156
  77   1.0000      -0.291623        -7.9355
  78   1.0000      -0.290793        -7.9129
  79   1.0000      -0.275409        -7.4943
  80   1.0000      -0.275001        -7.4832
  81   1.0000      -0.260484        -7.0881
  82   1.0000      -0.253225        -6.8906
  83   1.0000      -0.242050        -6.5865
  84   1.0000      -0.239080        -6.5057
  85   1.0000      -0.215889        -5.8746
  86   1.0000      -0.198074        -5.3899
  87   1.0000      -0.187641        -5.1060
  88   1.0000      -0.185808        -5.0561
  89   1.0000      -0.185331        -5.0431
  90   1.0000      -0.184664        -5.0250
  91   1.0000      -0.181579        -4.9410
  92   1.0000      -0.176568        -4.8047
  93   1.0000      -0.151854        -4.1322
  94   1.0000      -0.150658        -4.0996
  95   1.0000      -0.135041        -3.6747
  96   1.0000      -0.129348        -3.5197
  97   1.0000      -0.124991        -3.4012
  98   1.0000      -0.113833        -3.0976
  99   1.0000      -0.103524        -2.8170
 100   1.0000      -0.097943        -2.6652
 101   1.0000      -0.096167        -2.6168
 102   1.0000      -0.082568        -2.2468
 103   1.0000      -0.075325        -2.0497
 104   1.0000      -0.047969        -1.3053
 105   1.0000      -0.041442        -1.1277
 106   1.0000      -0.024424        -0.6646
 107   1.0000      -0.021047        -0.5727
 108   1.0000      -0.011310        -0.3078
 109   1.0000      -0.001987        -0.0541
 110   1.0000      -0.001508        -0.0410
 111   1.0000       0.001013         0.0276
 112   1.0000       0.009529         0.2593
 113   1.0000       0.011025         0.3000
 114   1.0000       0.020884         0.5683
 115   1.0000       0.036807         1.0016
 116   1.0000       0.063776         1.7354
 117   0.0000       0.175864         4.7855
 118   0.0000       0.187498         5.1021
 119   0.0000       0.193674         5.2701
 120   0.0000       0.198408         5.3989
 121   0.0000       0.201247         5.4762

                 SPIN DOWN ORBITALS
  NO   OCC          E(Eh)            E(eV)
   0   1.0000    -196.645488     -5350.9958
   1   1.0000     -88.685661     -2413.2595
   2   1.0000     -88.685485     -2413.2547
   3   1.0000     -88.655573     -2412.4408
   4   1.0000     -88.654900     -2412.4225
   5   1.0000     -88.640627     -2412.0341
   6   1.0000     -88.640323     -2412.0258
   7   1.0000     -88.595642     -2410.8100
   8   1.0000     -88.595330     -2410.8015
   9   1.0000     -22.005575      -598.8021
  10   1.0000     -18.867095      -513.3998
  11   1.0000     -18.522005      -504.0094
  12   1.0000     -18.505806      -503.5686
  13   1.0000     -18.505142      -503.5505
  14   1.0000     -10.017625      -272.5934
  15   1.0000     -10.017231      -272.5827
  16   1.0000     -10.011069      -272.4150
  17   1.0000     -10.010691      -272.4047
  18   1.0000     -10.010225      -272.3921
  19   1.0000     -10.009879      -272.3827
  20   1.0000     -10.001833      -272.1637
  21   1.0000     -10.001563      -272.1564
  22   1.0000      -9.989948      -271.8403
  23   1.0000      -9.989804      -271.8364
  24   1.0000      -7.741284      -210.6510
  25   1.0000      -7.741165      -210.6478
  26   1.0000      -7.709378      -209.7828
  27   1.0000      -7.708738      -209.7654
  28   1.0000      -7.702558      -209.5972
  29   1.0000      -7.702024      -209.5827
  30   1.0000      -7.647802      -208.1073
  31   1.0000      -7.647484      -208.0986
  32   1.0000      -5.706372      -155.2783
  33   1.0000      -5.706261      -155.2753
  34   1.0000      -5.702236      -155.1657
  35   1.0000      -5.702103      -155.1621
  36   1.0000      -5.696196      -155.0014
  37   1.0000      -5.696082      -154.9983
  38   1.0000      -5.674290      -154.4053
  39   1.0000      -5.673639      -154.3876
  40   1.0000      -5.670699      -154.3076
  41   1.0000      -5.670056      -154.2901
  42   1.0000      -5.666191      -154.1849
  43   1.0000      -5.665687      -154.1712
  44   1.0000      -5.664453      -154.1376
  45   1.0000      -5.663824      -154.1205
  46   1.0000      -5.660985      -154.0432
  47   1.0000      -5.660455      -154.0288
  48   1.0000      -5.660323      -154.0252
  49   1.0000      -5.659807      -154.0112
  50   1.0000      -5.612807      -152.7323
  51   1.0000      -5.612472      -152.7231
  52   1.0000      -5.607292      -152.5822
  53   1.0000      -5.606993      -152.5740
  54   1.0000      -5.605334      -152.5289
  55   1.0000      -5.605030      -152.5206
  56   1.0000      -2.370638       -64.5084
  57   1.0000      -1.437549       -39.1177
  58   1.0000      -1.383722       -37.6530
  59   1.0000      -1.382590       -37.6222
  60   1.0000      -0.646601       -17.5949
  61   1.0000      -0.646392       -17.5892
  62   1.0000      -0.631980       -17.1970
  63   1.0000      -0.610276       -16.6065
  64   1.0000      -0.609049       -16.5731
  65   1.0000      -0.588320       -16.0090
  66   1.0000      -0.588130       -16.0038
  67   1.0000      -0.531191       -14.4544
  68   1.0000      -0.530576       -14.4377
  69   1.0000      -0.456907       -12.4331
  70   1.0000      -0.455768       -12.4021
  71   1.0000      -0.433084       -11.7848
  72   1.0000      -0.431505       -11.7418
  73   1.0000      -0.397713       -10.8223
  74   1.0000      -0.392551       -10.6819
  75   1.0000      -0.364001        -9.9050
  76   1.0000      -0.357419        -9.7259
  77   1.0000      -0.291526        -7.9328
  78   1.0000      -0.290750        -7.9117
  79   1.0000      -0.275353        -7.4927
  80   1.0000      -0.274955        -7.4819
  81   1.0000      -0.260046        -7.0762
  82   1.0000      -0.253108        -6.8874
  83   1.0000      -0.241900        -6.5824
  84   1.0000      -0.238976        -6.5029
  85   1.0000      -0.214952        -5.8491
  86   1.0000      -0.197752        -5.3811
  87   1.0000      -0.187226        -5.0947
  88   1.0000      -0.185694        -5.0530
  89   1.0000      -0.185281        -5.0418
  90   1.0000      -0.184549        -5.0218
  91   1.0000      -0.181033        -4.9262
  92   1.0000      -0.176356        -4.7989
  93   1.0000      -0.151532        -4.1234
  94   1.0000      -0.150532        -4.0962
  95   1.0000      -0.134256        -3.6533
  96   1.0000      -0.129043        -3.5114
  97   1.0000      -0.123881        -3.3710
  98   1.0000      -0.113559        -3.0901
  99   1.0000      -0.102972        -2.8020
 100   1.0000      -0.097311        -2.6480
 101   1.0000      -0.095746        -2.6054
 102   1.0000      -0.084376        -2.2960
 103   1.0000      -0.077644        -2.1128
 104   1.0000      -0.046574        -1.2674
 105   1.0000      -0.040065        -1.0902
 106   1.0000      -0.020627        -0.5613
 107   1.0000      -0.018640        -0.5072
 108   1.0000      -0.010872        -0.2958
 109   1.0000      -0.001417        -0.0386
 110   1.0000       0.002822         0.0768
 111   1.0000       0.003136         0.0853
 112   1.0000       0.011049         0.3007
 113   1.0000       0.011267         0.3066
 114   1.0000       0.037037         1.0078
 115   1.0000       0.062895         1.7115
 116   0.0000       0.171871         4.6768
 117   0.0000       0.182710         4.9718
 118   0.0000       0.188510         5.1296
 119   0.0000       0.198916         5.4128
 120   0.0000       0.199710         5.4344

MULLIKEN ATOMIC CHARGES AND SPIN POPULATIONS
--------------------------------------------
   0 V :    0.399265    1.194380
   1 S :   -0.122184   -0.012796
   2 S :   -0.125898   -0.012669
   3 S :   -0.337020   -0.042047
   4 S :   -0.334773   -0.041867
   5 O :   -0.498698   -0.137603
   6 C :   -0.070670    0.004384
   7 C :   -0.166604    0.020850
   8 C :   -0.068541    0.004097
   9 C :   -0.168564    0.021544
  10 S :   -0.171304   -0.003228
  11 S :    0.069847    0.002754
  12 S :    0.071127    0.002841
  13 S :   -0.173696   -0.003344
  14 C :   -0.312576    0.000904
  15 C :   -0.310342    0.000961
  16 C :   -0.336513    0.000206
  17 C :   -0.337664    0.000241
  18 C :   -0.092767    0.000226
  19 H :    0.138658   -0.000204
  20 H :    0.102935   -0.000041
  21 H :    0.044115    0.000183
  22 H :    0.076526    0.000036
  23 H :    0.085636    0.000025
  24 H :    0.143107   -0.000036
  25 C :   -0.092719    0.000235
  26 H :    0.102824   -0.000036
  27 H :    0.138676   -0.000212
  28 H :    0.076529    0.000031
  29 H :    0.043957    0.000184
  30 H :    0.142580   -0.000040
  31 H :    0.084752    0.000042
Sum of atomic charges         :   -2.0000000

LOEWDIN ATOMIC CHARGES AND SPIN POPULATIONS
-------------------------------------------
   0 V :   -0.250614    1.148199
   1 S :    0.285691   -0.006797
   2 S :    0.280893   -0.006667
   3 S :   -0.048838   -0.031138
   4 S :   -0.046514   -0.031062
   5 O :   -0.348324   -0.122845
   6 C :   -0.506712    0.005778
   7 C :   -0.606714    0.020393
   8 C :   -0.505712    0.005471
   9 C :   -0.607740    0.020998
  10 S :    0.197917   -0.003690
  11 S :    0.444813    0.001601
  12 S :    0.446144    0.001695
  13 S :    0.195105   -0.003780
  14 C :   -0.287564    0.000756
  15 C :   -0.287655    0.000818
  16 C :   -0.307224    0.000085
  17 C :   -0.307669    0.000092
  18 C :   -0.184010    0.000030
  19 H :    0.062036   -0.000132
  20 H :    0.046715   -0.000077
  21 H :    0.046236    0.000084
  22 H :    0.053015    0.000035
  23 H :    0.042089    0.000043
  24 H :    0.064546    0.000058
  25 C :   -0.183985    0.000028
  26 H :    0.046669   -0.000076
  27 H :    0.061955   -0.000135
  28 H :    0.053023    0.000034
  29 H :    0.046177    0.000088
  30 H :    0.064403    0.000061
  31 H :    0.041846    0.000054

  Mayer bond orders larger than 0.100000
B(  0-V ,  1-S ) :   0.6541 B(  0-V ,  2-S ) :   0.6589 B(  0-V ,  3-S ) :   0.9167
B(  0-V ,  4-S ) :   0.9122 B(  0-V ,  5-O ) :   2.1089 B(  1-S ,  8-C ) :   1.4313
B(  1-S ,  9-C ) :   0.1562 B(  2-S ,  6-C ) :   1.4233 B(  2-S ,  7-C ) :   0.1537
B(  3-S ,  9-C ) :   0.8571 B(  4-S ,  7-C ) :   0.8613 B(  6-C ,  7-C ) :   1.4808
B(  6-C , 10-S ) :   0.7570 B(  7-C , 11-S ) :   1.2336 B(  8-C ,  9-C ) :   1.4782
B(  8-C , 13-S ) :   0.7532 B(  9-C , 12-S ) :   1.2386 B( 10-S , 16-C ) :   1.0473
B( 11-S , 14-C ) :   0.9360 B( 12-S , 15-C ) :   0.9351 B( 13-S , 17-C ) :   1.0487
B( 14-C , 18-C ) :   0.8920 B( 14-C , 23-H ) :   0.9664 B( 14-C , 24-H ) :   0.9690
B( 15-C , 25-C ) :   0.8919 B( 15-C , 30-H ) :   0.9688 B( 15-C , 31-H ) :   0.9661
B( 16-C , 18-C ) :   0.8773 B( 16-C , 19-H ) :   0.9778 B( 16-C , 20-H ) :   0.9698
B( 17-C , 25-C ) :   0.8769 B( 17-C , 26-H ) :   0.9699 B( 17-C , 27-H ) :   0.9777
B( 18-C , 21-H ) :   0.9533 B( 18-C , 22-H ) :   0.9741 B( 25-C , 28-H ) :   0.9744
B( 25-C , 29-H ) :   0.9535

FINAL SINGLE POINT ENERGY     -4592.532687234781

DIPOLE MOMENT
-------------
                                X             Y             Z
Electronic contribution:     -2.12061     -21.80787     -15.59269
Nuclear contribution   :      2.27632      24.50800      16.69042
                        -----------------------------------------
Total Dipole Moment    :      0.15571       2.70013       1.09773
                        -----------------------------------------
Magnitude (a.u.)       :      2.91890
Magnitude (Debye)      :      7.41924

Rotational constants in cm-1:     0.012770     0.002547     0.002430
Rotational constants in MHz :   382.837484    76.364409    72.851052

                             ****ORCA TERMINATED NORMALLY****
TOTAL RUN TIME: 0 days 0 hours 27 minutes 37 seconds 405 msec
