                         Program Version 5.0.4 -  RELEASE  -
|  1> ! nofrozencore ReducedPop printbasis
|  2> ! B3LYP TZVP
|  3>
|  4> %basis
|  5> newgto V "CP(PPP)" end
|  6> end
|  7>
|  8> %pal
|  9> nprocs 4
| 10> end
| 11>
| 12> % sym SymThresh 1e-2 end
| 13> * xyz -2 2
| 14> V 1.04991149389504 0.2653850319709849 -0.26752023828833005
| 15> S 1.0164952732260795 -0.3915517926361675 2.1322616195646447
| 16> S 0.7420173136201703 -2.0807556290815965 -0.7354065812719898
| 17> S -0.026900779013875404 2.262464652868079 0.5515895556588885
| 18> S -0.3458880312632594 0.5609721467289386 -2.3067254798025174
| 19> O 2.5542729348698545 0.645026707150928 -0.6444139488576978
| 20> C 0.15211883778932134 -2.133477314276773 -2.398151492416397
| 21> C -0.3175035052827392 -1.0420269180277104 -3.0591710535061365
| 22> C 0.6738311567655476 1.1322058500162406 2.96693862405123
| 23> C 0.2521660095400421 2.2362544823471326 2.29432139560285
| 24> S 0.15947854797373348 -3.7843055522358613 -3.110182966445387
| 25> S -0.9367997966528042 -1.1341663807570646 -4.758870083200284
| 26> S -0.15662315828248774 3.785455653881851 3.1099706084575045
| 27> S 0.9279211280748544 1.1312960508666605 4.760740180685224
| 28> C -2.48109790059517 -2.147856017024976 -4.631962586731227
| 29> C -1.6657880966313892 3.313578299624819 4.060081253339847
| 30> C -1.6454549035806019 -4.151634985140582 -3.215401670861716
| 31> C -0.7721428672582299 1.326212623549963 5.465998324424457
| 32> C -2.3189086992458328 -3.6673664835508943 -4.5027257203120366
| 33> H -2.112695299204362 -3.7128810349150627 -2.324030834145675
| 34> H -1.7322496138664052 -5.2461238011693405 -3.139634819222171
| 35> H -3.3265233157884455 -4.111170255191323 -4.552967904235649
| 36> H -1.7589477357984322 -4.051287114698282 -5.3658635241350705
| 37> H -3.028353949075913 -1.9180114458472415 -5.559150716710449
| 38> H -3.063777588195112 -1.745384686289918 -3.7920153615272953
| 39> C -1.3861601494982405 2.7312962242987004 5.448507435494668
| 40> H -0.667815755289901 0.9883186342761708 6.508766006518599
| 41> H -1.422496754504988 0.6086669001345756 4.946682908133625
| 42> H -0.7357647219016334 3.422343773272676 6.001337323818812
| 43> H -2.33916538568407 2.6803052446490647 5.999723532584332
| 44> H -2.2314941475386134 2.6125721776623627 3.432072182032665
| 45> H -2.258620726199104 4.235960070541091 4.1567353046682385
| 46> *
| 47>
| 48> % eprnmr
| 49> gtensor true
| 50> Nuclei = all H {aiso,adip,aorb,fgrad,rho}
| 51> Nuclei = all V {aiso,adip,aorb,fgrad,rho}
| 52> end
| 53>
| 54>                          ****END OF INPUT****

CARTESIAN COORDINATES (ANGSTROEM)
---------------------------------
  V      1.051021    0.265618   -0.267870
  S      1.017605   -0.391319    2.131912
  S      0.743127   -2.080522   -0.735756
  S     -0.025791    2.262698    0.551240
  S     -0.344778    0.561205   -2.307075
  O      2.555383    0.645260   -0.644764
  C      0.153229   -2.133244   -2.398501
  C     -0.316394   -1.041794   -3.059521
  C      0.674941    1.132439    2.966589
  C      0.253276    2.236488    2.293972
  S      0.160588   -3.784072   -3.110533
  S     -0.935690   -1.133933   -4.759220
  S     -0.155513    3.785689    3.109621
  S      0.929031    1.131529    4.760391
  C     -2.479988   -2.147623   -4.632312
  C     -1.664678    3.313811    4.059732
  C     -1.644345   -4.151402   -3.215751
  C     -0.771033    1.326446    5.465649
  C     -2.317799   -3.667133   -4.503075
  H     -2.111585   -3.712648   -2.324380
  H     -1.731140   -5.245891   -3.139984
  H     -3.325413   -4.110937   -4.553317
  H     -1.757838   -4.051054   -5.366213
  H     -3.027244   -1.917778   -5.559500
  H     -3.062668   -1.745152   -3.792365
  C     -1.385050    2.731529    5.448158
  H     -0.666706    0.988552    6.508416
  H     -1.421387    0.608900    4.946333
  H     -0.734655    3.422577    6.000988
  H     -2.338055    2.680538    5.999374
  H     -2.230384    2.612805    3.431723
  H     -2.257511    4.236193    4.156386

 Total Charge           Charge          ....   -2
 Multiplicity           Mult            ....    2
 Number of Electrons    NEL             ....  233
 Basis Dimension        Dim             ....  517

ORBITAL ENERGIES
----------------
                 SPIN UP ORBITALS
  NO   OCC          E(Eh)            E(eV)
   0   1.0000    -196.639955     -5350.8452
   1   1.0000     -88.677687     -2413.0426
   2   1.0000     -88.677583     -2413.0397
   3   1.0000     -88.675395     -2412.9802
   4   1.0000     -88.675316     -2412.9780
   5   1.0000     -88.612067     -2411.2569
   6   1.0000     -88.612032     -2411.2560
   7   1.0000     -88.611873     -2411.2517
   8   1.0000     -88.611845     -2411.2509
   9   1.0000     -22.015774      -599.0797
  10   1.0000     -18.857103      -513.1279
  11   1.0000     -18.522594      -504.0254
  12   1.0000     -18.516858      -503.8693
  13   1.0000     -18.516753      -503.8665
  14   1.0000     -10.018425      -272.6152
  15   1.0000     -10.018387      -272.6142
  16   1.0000     -10.015665      -272.5401
  17   1.0000     -10.015597      -272.5382
  18   1.0000     -10.005704      -272.2691
  19   1.0000     -10.005642      -272.2674
  20   1.0000      -9.992587      -271.9121
  21   1.0000      -9.992555      -271.9113
  22   1.0000      -9.990563      -271.8570
  23   1.0000      -9.990552      -271.8567
  24   1.0000      -7.731001      -210.3712
  25   1.0000      -7.730908      -210.3687
  26   1.0000      -7.729305      -210.3251
  27   1.0000      -7.729258      -210.3238
  28   1.0000      -7.666674      -208.6208
  29   1.0000      -7.666658      -208.6204
  30   1.0000      -7.666161      -208.6068
  31   1.0000      -7.666130      -208.6060
  32   1.0000      -5.696310      -155.0045
  33   1.0000      -5.696216      -155.0019
  34   1.0000      -5.694501      -154.9553
  35   1.0000      -5.694447      -154.9538
  36   1.0000      -5.692334      -154.8963
  37   1.0000      -5.692242      -154.8938
  38   1.0000      -5.690688      -154.8515
  39   1.0000      -5.690643      -154.8503
  40   1.0000      -5.685765      -154.7175
  41   1.0000      -5.685667      -154.7149
  42   1.0000      -5.684028      -154.6703
  43   1.0000      -5.683977      -154.6689
  44   1.0000      -5.631454      -153.2397
  45   1.0000      -5.631439      -153.2392
  46   1.0000      -5.631069      -153.2292
  47   1.0000      -5.631039      -153.2284
  48   1.0000      -5.625042      -153.0652
  49   1.0000      -5.625026      -153.0648
  50   1.0000      -5.624698      -153.0558
  51   1.0000      -5.624675      -153.0552
  52   1.0000      -5.624651      -153.0545
  53   1.0000      -5.624640      -153.0542
  54   1.0000      -5.624111      -153.0398
  55   1.0000      -5.624061      -153.0385
  56   1.0000      -2.409530       -65.5666
  57   1.0000      -1.450879       -39.4804
  58   1.0000      -1.439348       -39.1666
  59   1.0000      -1.438265       -39.1372
  60   1.0000      -0.642680       -17.4882
  61   1.0000      -0.642608       -17.4863
  62   1.0000      -0.618172       -16.8213
  63   1.0000      -0.593316       -16.1449
  64   1.0000      -0.592867       -16.1327
  65   1.0000      -0.574963       -15.6455
  66   1.0000      -0.574907       -15.6440
  67   1.0000      -0.491219       -13.3668
  68   1.0000      -0.489335       -13.3155
  69   1.0000      -0.487028       -13.2527
  70   1.0000      -0.485849       -13.2206
  71   1.0000      -0.422615       -11.4999
  72   1.0000      -0.419895       -11.4259
  73   1.0000      -0.412084       -11.2134
  74   1.0000      -0.406990       -11.0748
  75   1.0000      -0.375834       -10.2270
  76   1.0000      -0.372724       -10.1423
  77   1.0000      -0.291409        -7.9297
  78   1.0000      -0.291206        -7.9241
  79   1.0000      -0.277036        -7.5385
  80   1.0000      -0.276758        -7.5310
  81   1.0000      -0.260059        -7.0766
  82   1.0000      -0.255184        -6.9439
  83   1.0000      -0.241364        -6.5679
  84   1.0000      -0.238630        -6.4934
  85   1.0000      -0.195256        -5.3132
  86   1.0000      -0.192286        -5.2324
  87   1.0000      -0.191757        -5.2180
  88   1.0000      -0.191090        -5.1998
  89   1.0000      -0.184579        -5.0227
  90   1.0000      -0.184376        -5.0171
  91   1.0000      -0.180881        -4.9220
  92   1.0000      -0.151053        -4.1104
  93   1.0000      -0.149332        -4.0635
  94   1.0000      -0.143415        -3.9025
  95   1.0000      -0.143083        -3.8935
  96   1.0000      -0.141748        -3.8572
  97   1.0000      -0.097366        -2.6495
  98   1.0000      -0.096381        -2.6227
  99   1.0000      -0.089576        -2.4375
 100   1.0000      -0.083325        -2.2674
 101   1.0000      -0.081536        -2.2187
 102   1.0000      -0.080140        -2.1807
 103   1.0000      -0.069678        -1.8960
 104   1.0000      -0.050494        -1.3740
 105   1.0000      -0.038208        -1.0397
 106   1.0000      -0.038142        -1.0379
 107   1.0000      -0.035058        -0.9540
 108   1.0000      -0.032026        -0.8715
 109   1.0000      -0.012811        -0.3486
 110   1.0000      -0.004255        -0.1158
 111   1.0000      -0.003266        -0.0889
 112   1.0000       0.006244         0.1699
 113   1.0000       0.010831         0.2947
 114   1.0000       0.016359         0.4451
 115   1.0000       0.033658         0.9159
 116   1.0000       0.059787         1.6269
 117   0.0000       0.187960         5.1147
 118   0.0000       0.195346         5.3156
 119   0.0000       0.196162         5.3378
 120   0.0000       0.196432         5.3452
 121   0.0000       0.210686         5.7330

                 SPIN DOWN ORBITALS
  NO   OCC          E(Eh)            E(eV)
   0   1.0000    -196.640096     -5350.8490
   1   1.0000     -88.677700     -2413.0429
   2   1.0000     -88.677596     -2413.0401
   3   1.0000     -88.675408     -2412.9805
   4   1.0000     -88.675330     -2412.9784
   5   1.0000     -88.612227     -2411.2613
   6   1.0000     -88.612192     -2411.2603
   7   1.0000     -88.612032     -2411.2560
   8   1.0000     -88.612004     -2411.2552
   9   1.0000     -22.001116      -598.6808
  10   1.0000     -18.860672      -513.2250
  11   1.0000     -18.517470      -503.8860
  12   1.0000     -18.501345      -503.4472
  13   1.0000     -18.500663      -503.4286
  14   1.0000     -10.018423      -272.6151
  15   1.0000     -10.018384      -272.6141
  16   1.0000     -10.015661      -272.5400
  17   1.0000     -10.015592      -272.5381
  18   1.0000     -10.005704      -272.2690
  19   1.0000     -10.005641      -272.2673
  20   1.0000      -9.992370      -271.9062
  21   1.0000      -9.992337      -271.9053
  22   1.0000      -9.990270      -271.8491
  23   1.0000      -9.990260      -271.8488
  24   1.0000      -7.731015      -210.3716
  25   1.0000      -7.730921      -210.3691
  26   1.0000      -7.729320      -210.3255
  27   1.0000      -7.729272      -210.3242
  28   1.0000      -7.666820      -208.6248
  29   1.0000      -7.666805      -208.6244
  30   1.0000      -7.666310      -208.6109
  31   1.0000      -7.666280      -208.6101
  32   1.0000      -5.696327      -155.0049
  33   1.0000      -5.696233      -155.0024
  34   1.0000      -5.694518      -154.9557
  35   1.0000      -5.694464      -154.9542
  36   1.0000      -5.692355      -154.8969
  37   1.0000      -5.692263      -154.8943
  38   1.0000      -5.690708      -154.8520
  39   1.0000      -5.690662      -154.8508
  40   1.0000      -5.685780      -154.7179
  41   1.0000      -5.685683      -154.7153
  42   1.0000      -5.684047      -154.6708
  43   1.0000      -5.683996      -154.6694
  44   1.0000      -5.631633      -153.2445
  45   1.0000      -5.631618      -153.2441
  46   1.0000      -5.631234      -153.2337
  47   1.0000      -5.631204      -153.2328
  48   1.0000      -5.625417      -153.0754
  49   1.0000      -5.625400      -153.0749
  50   1.0000      -5.625052      -153.0654
  51   1.0000      -5.625043      -153.0652
  52   1.0000      -5.624838      -153.0596
  53   1.0000      -5.624816      -153.0590
  54   1.0000      -5.624245      -153.0435
  55   1.0000      -5.624195      -153.0421
  56   1.0000      -2.365377       -64.3652
  57   1.0000      -1.432075       -38.9687
  58   1.0000      -1.377971       -37.4965
  59   1.0000      -1.377329       -37.4790
  60   1.0000      -0.642628       -17.4868
  61   1.0000      -0.642553       -17.4847
  62   1.0000      -0.625814       -17.0293
  63   1.0000      -0.593127       -16.1398
  64   1.0000      -0.592657       -16.1270
  65   1.0000      -0.574958       -15.6454
  66   1.0000      -0.574903       -15.6439
  67   1.0000      -0.491242       -13.3674
  68   1.0000      -0.489373       -13.3165
  69   1.0000      -0.487027       -13.2527
  70   1.0000      -0.485870       -13.2212
  71   1.0000      -0.422849       -11.5063
  72   1.0000      -0.420189       -11.4339
  73   1.0000      -0.412106       -11.2140
  74   1.0000      -0.407089       -11.0774
  75   1.0000      -0.375786       -10.2257
  76   1.0000      -0.372748       -10.1430
  77   1.0000      -0.291385        -7.9290
  78   1.0000      -0.291195        -7.9238
  79   1.0000      -0.277012        -7.5379
  80   1.0000      -0.276745        -7.5306
  81   1.0000      -0.259849        -7.0709
  82   1.0000      -0.255142        -6.9428
  83   1.0000      -0.241263        -6.5651
  84   1.0000      -0.238552        -6.4913
  85   1.0000      -0.194793        -5.3006
  86   1.0000      -0.192225        -5.2307
  87   1.0000      -0.191715        -5.2168
  88   1.0000      -0.191068        -5.1992
  89   1.0000      -0.184525        -5.0212
  90   1.0000      -0.184324        -5.0157
  91   1.0000      -0.178762        -4.8644
  92   1.0000      -0.150394        -4.0924
  93   1.0000      -0.149001        -4.0545
  94   1.0000      -0.143177        -3.8960
  95   1.0000      -0.142788        -3.8854
  96   1.0000      -0.141686        -3.8555
  97   1.0000      -0.095897        -2.6095
  98   1.0000      -0.095804        -2.6070
  99   1.0000      -0.089694        -2.4407
 100   1.0000      -0.083329        -2.2675
 101   1.0000      -0.082008        -2.2316
 102   1.0000      -0.081052        -2.2055
 103   1.0000      -0.070970        -1.9312
 104   1.0000      -0.046314        -1.2603
 105   1.0000      -0.038412        -1.0452
 106   1.0000      -0.037400        -1.0177
 107   1.0000      -0.033966        -0.9243
 108   1.0000      -0.031987        -0.8704
 109   1.0000      -0.011938        -0.3249
 110   1.0000      -0.005598        -0.1523
 111   1.0000      -0.002282        -0.0621
 112   1.0000       0.007123         0.1938
 113   1.0000       0.011735         0.3193
 114   1.0000       0.033913         0.9228
 115   1.0000       0.059000         1.6055
 116   0.0000       0.185221         5.0401
 117   0.0000       0.189167         5.1475
 118   0.0000       0.195914         5.3311
 119   0.0000       0.196228         5.3396
 120   0.0000       0.196745         5.3537

MULLIKEN ATOMIC CHARGES AND SPIN POPULATIONS
--------------------------------------------
   0 V :    0.448149    1.198437
   1 S :   -0.264683   -0.024924
   2 S :   -0.242969   -0.023142
   3 S :   -0.243235   -0.023208
   4 S :   -0.265192   -0.024710
   5 O :   -0.506752   -0.138523
   6 C :   -0.115826    0.010106
   7 C :   -0.116632    0.007618
   8 C :   -0.117383    0.007702
   9 C :   -0.114448    0.010126
  10 S :   -0.042262    0.000013
  11 S :   -0.046704   -0.000342
  12 S :   -0.042353   -0.000013
  13 S :   -0.046874   -0.000373
  14 C :   -0.330772    0.000163
  15 C :   -0.344153    0.000437
  16 C :   -0.343793    0.000405
  17 C :   -0.329890    0.000192
  18 C :   -0.084670    0.000125
  19 H :    0.155844   -0.000123
  20 H :    0.101576    0.000038
  21 H :    0.044750    0.000038
  22 H :    0.078701    0.000018
  23 H :    0.098994    0.000006
  24 H :    0.137920   -0.000082
  25 C :   -0.084566    0.000126
  26 H :    0.098681    0.000013
  27 H :    0.137624   -0.000087
  28 H :    0.078519    0.000012
  29 H :    0.044777    0.000034
  30 H :    0.156247   -0.000127
  31 H :    0.101374    0.000045
Sum of atomic charges         :   -2.0000000

LOEWDIN ATOMIC CHARGES AND SPIN POPULATIONS
-------------------------------------------
   0 V :   -0.243557    1.152451
   1 S :    0.073352   -0.017396
   2 S :    0.103189   -0.015137
   3 S :    0.103064   -0.015169
   4 S :    0.072955   -0.017266
   5 O :   -0.351063   -0.123989
   6 C :   -0.554959    0.011531
   7 C :   -0.551274    0.008501
   8 C :   -0.551155    0.008512
   9 C :   -0.554636    0.011529
  10 S :    0.338246   -0.000977
  11 S :    0.333669   -0.001078
  12 S :    0.338088   -0.000991
  13 S :    0.333694   -0.001094
  14 C :   -0.296313    0.000119
  15 C :   -0.293144    0.000212
  16 C :   -0.293203    0.000201
  17 C :   -0.296530    0.000135
  18 C :   -0.185592   -0.000034
  19 H :    0.070311   -0.000019
  20 H :    0.047694    0.000014
  21 H :    0.046469    0.000016
  22 H :    0.053771    0.000012
  23 H :    0.048425   -0.000005
  24 H :    0.063673   -0.000033
  25 C :   -0.185613   -0.000037
  26 H :    0.048432   -0.000001
  27 H :    0.063557   -0.000034
  28 H :    0.053792    0.000010
  29 H :    0.046467    0.000017
  30 H :    0.070517   -0.000019
  31 H :    0.047675    0.000019

  Mayer bond orders larger than 0.100000
B(  0-V ,  1-S ) :   0.7659 B(  0-V ,  2-S ) :   0.8124 B(  0-V ,  3-S ) :   0.8127
B(  0-V ,  4-S ) :   0.7652 B(  0-V ,  5-O ) :   2.1076 B(  1-S ,  8-C ) :   1.1434
B(  2-S ,  6-C ) :   1.1307 B(  3-S ,  9-C ) :   1.1307 B(  4-S ,  7-C ) :   1.1433
B(  6-C ,  7-C ) :   1.5172 B(  6-C , 10-S ) :   0.9601 B(  7-C , 11-S ) :   0.9481
B(  8-C ,  9-C ) :   1.5178 B(  8-C , 13-S ) :   0.9480 B(  9-C , 12-S ) :   0.9600
B( 10-S , 16-C ) :   0.9924 B( 11-S , 14-C ) :   1.0157 B( 12-S , 15-C ) :   0.9925
B( 13-S , 17-C ) :   1.0164 B( 14-C , 18-C ) :   0.8779 B( 14-C , 23-H ) :   0.9698
B( 14-C , 24-H ) :   0.9743 B( 15-C , 25-C ) :   0.8784 B( 15-C , 30-H ) :   0.9750
B( 15-C , 31-H ) :   0.9684 B( 16-C , 18-C ) :   0.8783 B( 16-C , 19-H ) :   0.9751
B( 16-C , 20-H ) :   0.9685 B( 17-C , 25-C ) :   0.8778 B( 17-C , 26-H ) :   0.9697
B( 17-C , 27-H ) :   0.9741 B( 18-C , 21-H ) :   0.9522 B( 18-C , 22-H ) :   0.9736
B( 25-C , 28-H ) :   0.9737 B( 25-C , 29-H ) :   0.9522

FINAL SINGLE POINT ENERGY     -4592.722178136562

DIPOLE MOMENT
-------------
                                X             Y             Z
Electronic contribution:     25.12159       6.34984      -6.42230
Nuclear contribution   :    -28.00158      -7.07722       7.15689
                        -----------------------------------------
Total Dipole Moment    :     -2.88000      -0.72737       0.73458
                        -----------------------------------------
Magnitude (a.u.)       :      3.05991
Magnitude (Debye)      :      7.77768

Rotational constants in cm-1:     0.012767     0.002548     0.002431
Rotational constants in MHz :   382.750644    76.383462    72.866717

                             ****ORCA TERMINATED NORMALLY****
TOTAL RUN TIME: 0 days 0 hours 42 minutes 48 seconds 636 msec
