                         Program Version 5.0.4 -  RELEASE  -
|  1> ! nofrozencore ReducedPop printbasis
|  2> ! B3LYP TZVP
|  3>
|  4> %basis
|  5> newgto V "CP(PPP)" end
|  6> end
|  7>
|  8> %pal
|  9> nprocs 8
| 10> end
| 11>
| 12> % sym SymThresh 1e-2 end
| 13> * xyz -2 2
| 14> V 0.9399683085633422 0.5990109750128175 0.038915215941366495
| 15> S -0.5216182271931543 1.617591596634782 -1.6378841428817263
| 16> S -0.6137837906870008 1.5247283674862326 1.6895783997985012
| 17> S 1.223340341273946 -1.1399040984746525 -1.6564918331248828
| 18> S 1.155716177609949 -1.2135287455745685 1.6740605315808812
| 19> O 2.2836559962302996 1.4592685134208077 0.08928223922497701
| 20> C -0.2805003833158202 0.5999908516756797 3.1600470620285344
| 21> C 0.4560636073833406 -0.5423183878331358 3.153120284486395
| 22> C -0.102511184329418 0.7652952194689593 -3.1458985246351063
| 23> C 0.6234099623602722 -0.38156812718382754 -3.1540444791583693
| 24> S -1.0218172556279652 1.2717524823434543 4.662198632876467
| 25> S 0.7648436252775435 -1.5100668766092848 4.645040856950538
| 26> S 0.9406616923805062 -1.3079842116009541 -4.685507940094806
| 27> S -0.8119390081970138 1.4650136860372083 -4.6663692935773655
| 28> C -0.9032589176174957 -2.151292947509712 5.076417262808235
| 29> C -0.5544617888201394 -1.783911895516969 -5.1977356051655255
| 30> C -2.2978098642977836 0.020193575876734326 5.091972852258946
| 31> C -1.8885136409296668 0.32190586664844156 -5.1848741066213835
| 32> C -1.8122729197612457 -1.2070426281348385 5.858042610753817
| 33> H -2.792763544539894 -0.27006622498209537 4.162626425847254
| 34> H -3.0262022377141715 0.563719619790924 5.702131382113141
| 35> H -2.7011363088248115 -1.7800933916501152 6.168461793838547
| 36> H -1.3032252679178358 -0.8866357112194677 6.773560028669771
| 37> H -0.7107631289501086 -3.0472408527853694 5.675148783396955
| 38> H -1.378304229311427 -2.4688853496815635 4.145602389184952
| 39> C -1.4441671889307093 -0.8674514702675329 -5.945892474231573
| 40> H -2.578648309673308 0.8798062215805854 -5.829608528468621
| 41> H -2.4853019023437084 -0.026632472260608126 -4.333681680785176
| 42> H -1.0653233477376658 -0.6209225429032028 -6.982647812169939
| 43> H -2.4032552267006397 -1.4748340715440944 -6.064436408627822
| 44> H -1.120554083280264 -2.1808971497509555 -4.346635900753259
| 45> H -0.3508628102767451 -2.641250379037147 -5.851042913174098
| 46> *
| 47>
| 48> % eprnmr
| 49> gtensor true
| 50> Nuclei = all H {aiso,adip,aorb,fgrad,rho}
| 51> Nuclei = all V {aiso,adip,aorb,fgrad,rho}
| 52> end
| 53>
| 54>                          ****END OF INPUT****

CARTESIAN COORDINATES (ANGSTROEM)
---------------------------------
  V      0.940961    0.599650    0.039038
  S     -0.520626    1.618231   -1.637762
  S     -0.612791    1.525368    1.689701
  S      1.224333   -1.139265   -1.656369
  S      1.156709   -1.212889    1.674183
  O      2.284648    1.459908    0.089405
  C     -0.279508    0.600630    3.160170
  C      0.457056   -0.541679    3.153243
  C     -0.101519    0.765934   -3.145776
  C      0.624402   -0.380929   -3.153922
  S     -1.020825    1.272392    4.662321
  S      0.765836   -1.509428    4.645163
  S      0.941654   -1.307345   -4.685385
  S     -0.810947    1.465653   -4.666247
  C     -0.902267   -2.150654    5.076540
  C     -0.553469   -1.783273   -5.197613
  C     -2.296817    0.020833    5.092095
  C     -1.887521    0.322545   -5.184752
  C     -1.811281   -1.206403    5.858165
  H     -2.791771   -0.269427    4.162749
  H     -3.025210    0.564359    5.702254
  H     -2.700144   -1.779454    6.168584
  H     -1.302233   -0.885996    6.773683
  H     -0.709771   -3.046602    5.675271
  H     -1.377312   -2.468246    4.145725
  C     -1.443175   -0.866812   -5.945770
  H     -2.577656    0.880445   -5.829486
  H     -2.484310   -0.025993   -4.333559
  H     -1.064331   -0.620283   -6.982525
  H     -2.402263   -1.474195   -6.064314
  H     -1.119562   -2.180258   -4.346513
  H     -0.349870   -2.640611   -5.850920

 Total Charge           Charge          ....   -2
 Multiplicity           Mult            ....    2
 Number of Electrons    NEL             ....  233
 Basis Dimension        Dim             ....  517

ORBITAL ENERGIES
----------------
                 SPIN UP ORBITALS
  NO   OCC          E(Eh)            E(eV)
   0   1.0000    -196.639956     -5350.8452
   1   1.0000     -88.676158     -2413.0009
   2   1.0000     -88.676154     -2413.0008
   3   1.0000     -88.669447     -2412.8183
   4   1.0000     -88.669282     -2412.8138
   5   1.0000     -88.612162     -2411.2595
   6   1.0000     -88.612086     -2411.2574
   7   1.0000     -88.611835     -2411.2506
   8   1.0000     -88.611808     -2411.2499
   9   1.0000     -22.015794      -599.0802
  10   1.0000     -18.856946      -513.1236
  11   1.0000     -18.522612      -504.0259
  12   1.0000     -18.516850      -503.8691
  13   1.0000     -18.516809      -503.8680
  14   1.0000     -10.014794      -272.5164
  15   1.0000     -10.014756      -272.5154
  16   1.0000     -10.004172      -272.2273
  17   1.0000     -10.003495      -272.2089
  18   1.0000     -10.003342      -272.2048
  19   1.0000     -10.002087      -272.1706
  20   1.0000      -9.991974      -271.8954
  21   1.0000      -9.991709      -271.8882
  22   1.0000      -9.991248      -271.8757
  23   1.0000      -9.990986      -271.8685
  24   1.0000      -7.729955      -210.3428
  25   1.0000      -7.729912      -210.3416
  26   1.0000      -7.727566      -210.2778
  27   1.0000      -7.727534      -210.2769
  28   1.0000      -7.666281      -208.6101
  29   1.0000      -7.666246      -208.6092
  30   1.0000      -7.666214      -208.6083
  31   1.0000      -7.666185      -208.6075
  32   1.0000      -5.695190      -154.9740
  33   1.0000      -5.695147      -154.9728
  34   1.0000      -5.692471      -154.9000
  35   1.0000      -5.692435      -154.8990
  36   1.0000      -5.691277      -154.8675
  37   1.0000      -5.691247      -154.8667
  38   1.0000      -5.688271      -154.7857
  39   1.0000      -5.688211      -154.7841
  40   1.0000      -5.684709      -154.6888
  41   1.0000      -5.684679      -154.6880
  42   1.0000      -5.682366      -154.6251
  43   1.0000      -5.682328      -154.6240
  44   1.0000      -5.631251      -153.2341
  45   1.0000      -5.631175      -153.2321
  46   1.0000      -5.631102      -153.2301
  47   1.0000      -5.631059      -153.2289
  48   1.0000      -5.624755      -153.0574
  49   1.0000      -5.624694      -153.0557
  50   1.0000      -5.624660      -153.0548
  51   1.0000      -5.624658      -153.0547
  52   1.0000      -5.624220      -153.0428
  53   1.0000      -5.624204      -153.0424
  54   1.0000      -5.624160      -153.0412
  55   1.0000      -5.624075      -153.0389
  56   1.0000      -2.409463       -65.5648
  57   1.0000      -1.450833       -39.4792
  58   1.0000      -1.439266       -39.1644
  59   1.0000      -1.438170       -39.1346
  60   1.0000      -0.676073       -18.3969
  61   1.0000      -0.644831       -17.5467
  62   1.0000      -0.617997       -16.8166
  63   1.0000      -0.616039       -16.7633
  64   1.0000      -0.593636       -16.1537
  65   1.0000      -0.592909       -16.1339
  66   1.0000      -0.577070       -15.7029
  67   1.0000      -0.507426       -13.8078
  68   1.0000      -0.491135       -13.3645
  69   1.0000      -0.486845       -13.2477
  70   1.0000      -0.482730       -13.1357
  71   1.0000      -0.422086       -11.4855
  72   1.0000      -0.418536       -11.3889
  73   1.0000      -0.413192       -11.2435
  74   1.0000      -0.406939       -11.0734
  75   1.0000      -0.374558       -10.1922
  76   1.0000      -0.365855        -9.9554
  77   1.0000      -0.311350        -8.4723
  78   1.0000      -0.293518        -7.9870
  79   1.0000      -0.284543        -7.7428
  80   1.0000      -0.277886        -7.5617
  81   1.0000      -0.273902        -7.4533
  82   1.0000      -0.258409        -7.0317
  83   1.0000      -0.252149        -6.8613
  84   1.0000      -0.241154        -6.5621
  85   1.0000      -0.200364        -5.4522
  86   1.0000      -0.196666        -5.3515
  87   1.0000      -0.193906        -5.2764
  88   1.0000      -0.192272        -5.2320
  89   1.0000      -0.186356        -5.0710
  90   1.0000      -0.184715        -5.0264
  91   1.0000      -0.180303        -4.9063
  92   1.0000      -0.156232        -4.2513
  93   1.0000      -0.149379        -4.0648
  94   1.0000      -0.145330        -3.9546
  95   1.0000      -0.142447        -3.8762
  96   1.0000      -0.133598        -3.6354
  97   1.0000      -0.097716        -2.6590
  98   1.0000      -0.093261        -2.5378
  99   1.0000      -0.091209        -2.4819
 100   1.0000      -0.084690        -2.3045
 101   1.0000      -0.080148        -2.1809
 102   1.0000      -0.077088        -2.0977
 103   1.0000      -0.070228        -1.9110
 104   1.0000      -0.049807        -1.3553
 105   1.0000      -0.037461        -1.0194
 106   1.0000      -0.037160        -1.0112
 107   1.0000      -0.035233        -0.9587
 108   1.0000      -0.030450        -0.8286
 109   1.0000      -0.013325        -0.3626
 110   1.0000      -0.003838        -0.1044
 111   1.0000      -0.001801        -0.0490
 112   1.0000       0.006618         0.1801
 113   1.0000       0.010520         0.2863
 114   1.0000       0.016445         0.4475
 115   1.0000       0.033043         0.8992
 116   1.0000       0.059383         1.6159
 117   0.0000       0.191462         5.2099
 118   0.0000       0.191619         5.2142
 119   0.0000       0.196451         5.3457
 120   0.0000       0.203215         5.5298
 121   0.0000       0.211667         5.7597

                 SPIN DOWN ORBITALS
  NO   OCC          E(Eh)            E(eV)
   0   1.0000    -196.640097     -5350.8491
   1   1.0000     -88.676171     -2413.0013
   2   1.0000     -88.676167     -2413.0012
   3   1.0000     -88.669459     -2412.8186
   4   1.0000     -88.669294     -2412.8142
   5   1.0000     -88.612319     -2411.2638
   6   1.0000     -88.612244     -2411.2617
   7   1.0000     -88.611994     -2411.2550
   8   1.0000     -88.611967     -2411.2542
   9   1.0000     -22.001154      -598.6818
  10   1.0000     -18.860517      -513.2208
  11   1.0000     -18.517495      -503.8866
  12   1.0000     -18.501376      -503.4480
  13   1.0000     -18.500717      -503.4301
  14   1.0000     -10.014790      -272.5163
  15   1.0000     -10.014753      -272.5153
  16   1.0000     -10.004171      -272.2273
  17   1.0000     -10.003492      -272.2088
  18   1.0000     -10.003339      -272.2047
  19   1.0000     -10.002087      -272.1706
  20   1.0000      -9.991708      -271.8882
  21   1.0000      -9.991454      -271.8813
  22   1.0000      -9.990984      -271.8685
  23   1.0000      -9.990732      -271.8616
  24   1.0000      -7.729968      -210.3431
  25   1.0000      -7.729926      -210.3420
  26   1.0000      -7.727579      -210.2781
  27   1.0000      -7.727546      -210.2772
  28   1.0000      -7.666427      -208.6141
  29   1.0000      -7.666394      -208.6132
  30   1.0000      -7.666362      -208.6123
  31   1.0000      -7.666331      -208.6115
  32   1.0000      -5.695207      -154.9744
  33   1.0000      -5.695163      -154.9733
  34   1.0000      -5.692490      -154.9005
  35   1.0000      -5.692455      -154.8996
  36   1.0000      -5.691297      -154.8681
  37   1.0000      -5.691267      -154.8672
  38   1.0000      -5.688288      -154.7862
  39   1.0000      -5.688227      -154.7845
  40   1.0000      -5.684726      -154.6893
  41   1.0000      -5.684695      -154.6884
  42   1.0000      -5.682380      -154.6254
  43   1.0000      -5.682341      -154.6244
  44   1.0000      -5.631424      -153.2388
  45   1.0000      -5.631348      -153.2368
  46   1.0000      -5.631274      -153.2347
  47   1.0000      -5.631231      -153.2336
  48   1.0000      -5.625142      -153.0679
  49   1.0000      -5.625083      -153.0663
  50   1.0000      -5.625049      -153.0654
  51   1.0000      -5.625046      -153.0653
  52   1.0000      -5.624355      -153.0465
  53   1.0000      -5.624338      -153.0460
  54   1.0000      -5.624290      -153.0447
  55   1.0000      -5.624204      -153.0424
  56   1.0000      -2.365361       -64.3647
  57   1.0000      -1.432055       -38.9682
  58   1.0000      -1.377913       -37.4949
  59   1.0000      -1.377344       -37.4794
  60   1.0000      -0.676050       -18.3962
  61   1.0000      -0.644783       -17.5454
  62   1.0000      -0.625644       -17.0246
  63   1.0000      -0.616045       -16.7634
  64   1.0000      -0.593440       -16.1483
  65   1.0000      -0.592678       -16.1276
  66   1.0000      -0.577065       -15.7027
  67   1.0000      -0.507411       -13.8073
  68   1.0000      -0.491162       -13.3652
  69   1.0000      -0.486851       -13.2479
  70   1.0000      -0.482735       -13.1359
  71   1.0000      -0.422328       -11.4921
  72   1.0000      -0.418811       -11.3964
  73   1.0000      -0.413202       -11.2438
  74   1.0000      -0.407052       -11.0764
  75   1.0000      -0.374541       -10.1918
  76   1.0000      -0.365847        -9.9552
  77   1.0000      -0.311325        -8.4716
  78   1.0000      -0.293501        -7.9866
  79   1.0000      -0.284516        -7.7421
  80   1.0000      -0.277867        -7.5611
  81   1.0000      -0.273781        -7.4500
  82   1.0000      -0.258313        -7.0291
  83   1.0000      -0.252116        -6.8604
  84   1.0000      -0.241064        -6.5597
  85   1.0000      -0.200321        -5.4510
  86   1.0000      -0.196570        -5.3489
  87   1.0000      -0.193668        -5.2700
  88   1.0000      -0.192236        -5.2310
  89   1.0000      -0.186111        -5.0643
  90   1.0000      -0.184664        -5.0250
  91   1.0000      -0.178165        -4.8481
  92   1.0000      -0.155826        -4.2402
  93   1.0000      -0.148670        -4.0455
  94   1.0000      -0.145094        -3.9482
  95   1.0000      -0.142220        -3.8700
  96   1.0000      -0.133382        -3.6295
  97   1.0000      -0.096249        -2.6191
  98   1.0000      -0.092761        -2.5242
  99   1.0000      -0.091138        -2.4800
 100   1.0000      -0.084735        -2.3058
 101   1.0000      -0.081954        -2.2301
 102   1.0000      -0.076725        -2.0878
 103   1.0000      -0.071629        -1.9491
 104   1.0000      -0.045539        -1.2392
 105   1.0000      -0.037663        -1.0249
 106   1.0000      -0.036291        -0.9875
 107   1.0000      -0.034298        -0.9333
 108   1.0000      -0.030367        -0.8263
 109   1.0000      -0.012398        -0.3374
 110   1.0000      -0.004771        -0.1298
 111   1.0000      -0.000906        -0.0246
 112   1.0000       0.007137         0.1942
 113   1.0000       0.011391         0.3100
 114   1.0000       0.033285         0.9057
 115   1.0000       0.058589         1.5943
 116   0.0000       0.184645         5.0244
 117   0.0000       0.191835         5.2201
 118   0.0000       0.192770         5.2455
 119   0.0000       0.196641         5.3509
 120   0.0000       0.205474         5.5912

MULLIKEN ATOMIC CHARGES AND SPIN POPULATIONS
--------------------------------------------
   0 V :    0.450495    1.197212
   1 S :   -0.260934   -0.024144
   2 S :   -0.254404   -0.024042
   3 S :   -0.261134   -0.024070
   4 S :   -0.254594   -0.023955
   5 O :   -0.506123   -0.138580
   6 C :   -0.117755    0.008873
   7 C :   -0.115946    0.008888
   8 C :   -0.123952    0.009473
   9 C :   -0.123893    0.009444
  10 S :   -0.043997   -0.000142
  11 S :   -0.043885   -0.000176
  12 S :   -0.020542   -0.000032
  13 S :   -0.021371   -0.000064
  14 C :   -0.338997    0.000285
  15 C :   -0.356061    0.000315
  16 C :   -0.337456    0.000269
  17 C :   -0.354616    0.000335
  18 C :   -0.081454    0.000138
  19 H :    0.146159   -0.000102
  20 H :    0.101545    0.000020
  21 H :    0.043716    0.000038
  22 H :    0.077602    0.000020
  23 H :    0.101701    0.000020
  24 H :    0.146834   -0.000104
  25 C :   -0.008366    0.000290
  26 H :    0.097799    0.000017
  27 H :    0.139902   -0.000133
  28 H :    0.056134    0.000022
  29 H :    0.025553   -0.000002
  30 H :    0.140251   -0.000128
  31 H :    0.097787    0.000013
Sum of atomic charges         :   -2.0000000

LOEWDIN ATOMIC CHARGES AND SPIN POPULATIONS
-------------------------------------------
   0 V :   -0.244770    1.151337
   1 S :    0.080651   -0.016202
   2 S :    0.087722   -0.016262
   3 S :    0.080556   -0.016123
   4 S :    0.087464   -0.016224
   5 O :   -0.350116   -0.124047
   6 C :   -0.552512    0.010026
   7 C :   -0.551909    0.009986
   8 C :   -0.534903    0.010436
   9 C :   -0.535038    0.010462
  10 S :    0.339023   -0.001005
  11 S :    0.338885   -0.001025
  12 S :    0.398325   -0.000885
  13 S :    0.397038   -0.000898
  14 C :   -0.296274    0.000162
  15 C :   -0.363947    0.000142
  16 C :   -0.296296    0.000154
  17 C :   -0.362722    0.000148
  18 C :   -0.184895   -0.000036
  19 H :    0.065760   -0.000028
  20 H :    0.047326    0.000004
  21 H :    0.046804    0.000017
  22 H :    0.053090    0.000013
  23 H :    0.047348    0.000005
  24 H :    0.065921   -0.000028
  25 C :   -0.191992   -0.000063
  26 H :    0.051019    0.000004
  27 H :    0.062857   -0.000050
  28 H :    0.050541    0.000008
  29 H :    0.051084    0.000022
  30 H :    0.062874   -0.000049
  31 H :    0.051088    0.000002

  Mayer bond orders larger than 0.100000
B(  0-V ,  1-S ) :   0.7880 B(  0-V ,  2-S ) :   0.7898 B(  0-V ,  3-S ) :   0.7900
B(  0-V ,  4-S ) :   0.7872 B(  0-V ,  5-O ) :   2.1086 B(  1-S ,  8-C ) :   1.1240
B(  2-S ,  6-C ) :   1.1363 B(  3-S ,  9-C ) :   1.1229 B(  4-S ,  7-C ) :   1.1374
B(  6-C ,  7-C ) :   1.5192 B(  6-C , 10-S ) :   0.9528 B(  7-C , 11-S ) :   0.9528
B(  8-C ,  9-C ) :   1.5592 B(  8-C , 13-S ) :   0.9303 B(  9-C , 12-S ) :   0.9299
B( 10-S , 16-C ) :   1.0078 B( 11-S , 14-C ) :   1.0078 B( 12-S , 15-C ) :   1.0950
B( 13-S , 17-C ) :   1.0926 B( 14-C , 18-C ) :   0.8778 B( 14-C , 23-H ) :   0.9701
B( 14-C , 24-H ) :   0.9751 B( 15-C , 25-C ) :   0.8701 B( 15-C , 30-H ) :   0.9664
B( 15-C , 31-H ) :   0.9603 B( 16-C , 18-C ) :   0.8783 B( 16-C , 19-H ) :   0.9751
B( 16-C , 20-H ) :   0.9700 B( 17-C , 25-C ) :   0.8714 B( 17-C , 26-H ) :   0.9605
B( 17-C , 27-H ) :   0.9665 B( 18-C , 21-H ) :   0.9533 B( 18-C , 22-H ) :   0.9732
B( 25-C , 28-H ) :   0.9512 B( 25-C , 29-H ) :   0.9667

FINAL SINGLE POINT ENERGY     -4592.683553124521

DIPOLE MOMENT
-------------
                                X             Y             Z
Electronic contribution:     22.32153      14.21184       0.79657
Nuclear contribution   :    -24.89953     -15.85560      -0.91080
                        -----------------------------------------
Total Dipole Moment    :     -2.57800      -1.64376      -0.11423
                        -----------------------------------------
Magnitude (a.u.)       :      3.05959
Magnitude (Debye)      :      7.77686

Rotational constants in cm-1:     0.012989     0.002554     0.002433
Rotational constants in MHz :   389.403340    76.581852    72.953249

                             ****ORCA TERMINATED NORMALLY****
TOTAL RUN TIME: 0 days 0 hours 27 minutes 25 seconds 657 msec
