                         Program Version 5.0.4 -  RELEASE  -
|  1> ! nofrozencore ReducedPop printbasis
|  2> ! B3LYP TZVP
|  3>
|  4> %basis
|  5> newgto V "CP(PPP)" end
|  6> end
|  7>
|  8> %pal
|  9> nprocs 8
| 10> end
| 11>
| 12> % sym SymThresh 1e-2 end
| 13> * xyz -2 2
| 14> V -0.11032252398100367 -1.1038896807379088 0.11555803130383638
| 15> S -1.3918571838997995 -0.020628464310156417 1.9109035142787099
| 16> S -1.885501703738597 -0.3371548053978552 -1.3755697012427182
| 17> S 1.8125676840846299 -0.4100395368900972 1.452380939424308
| 18> S 1.3224248012221151 -0.6921307670919087 -1.8389697275589978
| 19> O -0.2702869744540872 -2.6832629970396984 0.28622883813304095
| 20> C -1.1504701946379752 -0.17946886412626595 -2.977210018778636
| 21> C 0.1321898761258014 -0.7659660563754327 -3.1837419187774176
| 22> C -0.21459981980420204 -0.05253677075721798 3.2661703551072483
| 23> C 1.1531504079372248 0.19759194035947897 2.976505646351807
| 24> S -2.3495123273895 -0.2231597704318549 -4.351584382910501
| 25> S 0.9065030782301293 -0.5777920243529258 -4.812988852316142
| 26> S 2.3482680118791883 0.2092546929071755 4.353146379051167
| 27> S -0.9046611355821816 0.5986996618788747 4.810699426980996
| 28> C 0.6689078744652955 1.1545167241158105 -5.444311328991594
| 29> C 2.214483725272607 2.0062706298524513 4.702449290398697
| 30> C -1.875192973029238 1.402765144774381 -5.057778602960382
| 31> C -0.3216604303814213 2.341346996344306 5.082087539848791
| 32> C -0.7067277364040583 1.4329400919346627 -6.0452152272170165
| 33> H -1.6359143421882456 2.019524640807573 -4.184969061648108
| 34> H -2.7661475933825512 1.8369881106821682 -5.5325878152481485
| 35> H -0.688709319752653 2.436218886862275 -6.502292103252081
| 36> H -0.8874166614888775 0.7167348688131703 -6.854353577309993
| 37> H 1.426362102042699 1.2050874751508547 -6.240019965711638
| 38> H 0.9400096043818366 1.8758483999200297 -4.6643296870693405
| 39> C 1.0944828083717721 2.4631095128553895 5.639117909411801
| 40> H -1.0368662994100344 2.699558071360445 5.83634341073599
| 41> H -0.4651798893014554 2.9275995878854215 4.166999288904858
| 42> H 1.150069241579151 1.9047586156739034 6.580129632458815
| 43> H 1.2807538862121075 3.5221445861366782 5.882717031524947
| 44> H 2.0856668443895567 2.468328910984527 3.7181721242870194
| 45> H 3.18208947532275 2.3428857907233644 5.099133630657736
| 46> *
| 47>
| 48> % eprnmr
| 49> gtensor true
| 50> Nuclei = all H {aiso,adip,aorb,fgrad,rho}
| 51> Nuclei = all V {aiso,adip,aorb,fgrad,rho}
| 52> end
| 53>
| 54>                          ****END OF INPUT****

CARTESIAN COORDINATES (ANGSTROEM)
---------------------------------
  V     -0.110458   -1.105068    0.115602
  S     -1.391993   -0.021807    1.910947
  S     -1.885637   -0.338333   -1.375526
  S      1.812432   -0.411218    1.452425
  S      1.322289   -0.693309   -1.838926
  O     -0.270423   -2.684441    0.286272
  C     -1.150606   -0.180647   -2.977166
  C      0.132054   -0.767144   -3.183698
  C     -0.214736   -0.053715    3.266214
  C      1.153015    0.196414    2.976549
  S     -2.349648   -0.224338   -4.351541
  S      0.906367   -0.578970   -4.812945
  S      2.348132    0.208076    4.353190
  S     -0.904797    0.597521    4.810743
  C      0.668772    1.153338   -5.444268
  C      2.214348    2.005092    4.702493
  C     -1.875329    1.401587   -5.057735
  C     -0.321796    2.340169    5.082131
  C     -0.706863    1.431762   -6.045172
  H     -1.636050    2.018346   -4.184925
  H     -2.766283    1.835810   -5.532544
  H     -0.688845    2.435041   -6.502249
  H     -0.887552    0.715557   -6.854310
  H      1.426226    1.203909   -6.239976
  H      0.939874    1.874670   -4.664286
  C      1.094347    2.461931    5.639161
  H     -1.037002    2.698380    5.836387
  H     -0.465316    2.926421    4.167043
  H      1.149934    1.903580    6.580173
  H      1.280618    3.520966    5.882761
  H      2.085531    2.467151    3.718216
  H      3.181954    2.341707    5.099177

 Total Charge           Charge          ....   -2
 Multiplicity           Mult            ....    2
 Number of Electrons    NEL             ....  233
 Basis Dimension        Dim             ....  517

ORBITAL ENERGIES
----------------
                 SPIN UP ORBITALS
  NO   OCC          E(Eh)            E(eV)
   0   1.0000    -196.642240     -5350.9074
   1   1.0000     -88.677759     -2413.0445
   2   1.0000     -88.677614     -2413.0406
   3   1.0000     -88.672681     -2412.9063
   4   1.0000     -88.672499     -2412.9014
   5   1.0000     -88.616919     -2411.3890
   6   1.0000     -88.616846     -2411.3870
   7   1.0000     -88.615866     -2411.3603
   8   1.0000     -88.615582     -2411.3526
   9   1.0000     -22.017983      -599.1398
  10   1.0000     -18.860280      -513.2143
  11   1.0000     -18.524900      -504.0882
  12   1.0000     -18.519013      -503.9280
  13   1.0000     -18.518918      -503.9254
  14   1.0000     -10.017556      -272.5916
  15   1.0000     -10.017470      -272.5892
  16   1.0000     -10.012678      -272.4588
  17   1.0000     -10.012480      -272.4534
  18   1.0000     -10.003875      -272.2193
  19   1.0000     -10.003780      -272.2167
  20   1.0000     -10.001223      -272.1471
  21   1.0000     -10.000699      -272.1328
  22   1.0000     -10.000493      -272.1272
  23   1.0000      -9.999777      -272.1078
  24   1.0000      -7.731305      -210.3795
  25   1.0000      -7.731154      -210.3754
  26   1.0000      -7.726230      -210.2414
  27   1.0000      -7.726023      -210.2358
  28   1.0000      -7.671410      -208.7497
  29   1.0000      -7.671327      -208.7474
  30   1.0000      -7.669697      -208.7031
  31   1.0000      -7.669442      -208.6961
  32   1.0000      -5.696241      -155.0026
  33   1.0000      -5.696078      -154.9982
  34   1.0000      -5.693051      -154.9158
  35   1.0000      -5.692914      -154.9121
  36   1.0000      -5.691689      -154.8787
  37   1.0000      -5.691480      -154.8730
  38   1.0000      -5.687262      -154.7583
  39   1.0000      -5.687051      -154.7525
  40   1.0000      -5.685989      -154.7236
  41   1.0000      -5.685833      -154.7194
  42   1.0000      -5.681072      -154.5898
  43   1.0000      -5.680872      -154.5844
  44   1.0000      -5.636156      -153.3676
  45   1.0000      -5.636070      -153.3653
  46   1.0000      -5.634637      -153.3263
  47   1.0000      -5.634380      -153.3193
  48   1.0000      -5.629812      -153.1950
  49   1.0000      -5.629722      -153.1925
  50   1.0000      -5.629526      -153.1872
  51   1.0000      -5.629460      -153.1854
  52   1.0000      -5.628231      -153.1519
  53   1.0000      -5.627988      -153.1454
  54   1.0000      -5.627587      -153.1344
  55   1.0000      -5.627325      -153.1273
  56   1.0000      -2.411829       -65.6292
  57   1.0000      -1.453400       -39.5490
  58   1.0000      -1.441669       -39.2298
  59   1.0000      -1.440362       -39.1943
  60   1.0000      -0.641819       -17.4648
  61   1.0000      -0.641508       -17.4563
  62   1.0000      -0.621140       -16.9021
  63   1.0000      -0.589417       -16.0389
  64   1.0000      -0.588726       -16.0200
  65   1.0000      -0.573875       -15.6159
  66   1.0000      -0.573492       -15.6055
  67   1.0000      -0.489903       -13.3309
  68   1.0000      -0.488492       -13.2925
  69   1.0000      -0.485359       -13.2073
  70   1.0000      -0.484733       -13.1903
  71   1.0000      -0.422221       -11.4892
  72   1.0000      -0.419407       -11.4126
  73   1.0000      -0.408395       -11.1130
  74   1.0000      -0.403650       -10.9839
  75   1.0000      -0.369206       -10.0466
  76   1.0000      -0.365018        -9.9326
  77   1.0000      -0.289419        -7.8755
  78   1.0000      -0.288920        -7.8619
  79   1.0000      -0.276660        -7.5283
  80   1.0000      -0.276425        -7.5219
  81   1.0000      -0.260788        -7.0964
  82   1.0000      -0.255911        -6.9637
  83   1.0000      -0.241266        -6.5652
  84   1.0000      -0.238572        -6.4919
  85   1.0000      -0.193214        -5.2576
  86   1.0000      -0.192290        -5.2325
  87   1.0000      -0.189788        -5.1644
  88   1.0000      -0.189468        -5.1557
  89   1.0000      -0.181700        -4.9443
  90   1.0000      -0.180536        -4.9126
  91   1.0000      -0.177050        -4.8178
  92   1.0000      -0.150930        -4.1070
  93   1.0000      -0.147764        -4.0209
  94   1.0000      -0.147059        -4.0017
  95   1.0000      -0.135272        -3.6809
  96   1.0000      -0.133360        -3.6289
  97   1.0000      -0.101245        -2.7550
  98   1.0000      -0.100343        -2.7305
  99   1.0000      -0.090484        -2.4622
 100   1.0000      -0.086382        -2.3506
 101   1.0000      -0.082634        -2.2486
 102   1.0000      -0.072777        -1.9804
 103   1.0000      -0.069381        -1.8880
 104   1.0000      -0.051201        -1.3933
 105   1.0000      -0.039805        -1.0831
 106   1.0000      -0.037504        -1.0205
 107   1.0000      -0.034916        -0.9501
 108   1.0000      -0.029494        -0.8026
 109   1.0000      -0.014872        -0.4047
 110   1.0000      -0.004141        -0.1127
 111   1.0000      -0.003598        -0.0979
 112   1.0000       0.000897         0.0244
 113   1.0000       0.009841         0.2678
 114   1.0000       0.018544         0.5046
 115   1.0000       0.031422         0.8550
 116   1.0000       0.056185         1.5289
 117   0.0000       0.165216         4.4958
 118   0.0000       0.171237         4.6596
 119   0.0000       0.197426         5.3722
 120   0.0000       0.197813         5.3828
 121   0.0000       0.208976         5.6865

                 SPIN DOWN ORBITALS
  NO   OCC          E(Eh)            E(eV)
   0   1.0000    -196.642382     -5350.9112
   1   1.0000     -88.677772     -2413.0449
   2   1.0000     -88.677627     -2413.0409
   3   1.0000     -88.672695     -2412.9067
   4   1.0000     -88.672513     -2412.9018
   5   1.0000     -88.617069     -2411.3930
   6   1.0000     -88.616998     -2411.3911
   7   1.0000     -88.616024     -2411.3646
   8   1.0000     -88.615738     -2411.3568
   9   1.0000     -22.003309      -598.7405
  10   1.0000     -18.863861      -513.3118
  11   1.0000     -18.519775      -503.9487
  12   1.0000     -18.503485      -503.5054
  13   1.0000     -18.502805      -503.4869
  14   1.0000     -10.017555      -272.5915
  15   1.0000     -10.017469      -272.5892
  16   1.0000     -10.012673      -272.4587
  17   1.0000     -10.012474      -272.4533
  18   1.0000     -10.003875      -272.2193
  19   1.0000     -10.003780      -272.2167
  20   1.0000     -10.000964      -272.1401
  21   1.0000     -10.000443      -272.1259
  22   1.0000     -10.000256      -272.1208
  23   1.0000      -9.999539      -272.1013
  24   1.0000      -7.731318      -210.3799
  25   1.0000      -7.731167      -210.3758
  26   1.0000      -7.726246      -210.2418
  27   1.0000      -7.726039      -210.2362
  28   1.0000      -7.671548      -208.7534
  29   1.0000      -7.671467      -208.7512
  30   1.0000      -7.669846      -208.7071
  31   1.0000      -7.669589      -208.7001
  32   1.0000      -5.696261      -155.0031
  33   1.0000      -5.696098      -154.9987
  34   1.0000      -5.693072      -154.9164
  35   1.0000      -5.692935      -154.9127
  36   1.0000      -5.691705      -154.8792
  37   1.0000      -5.691496      -154.8735
  38   1.0000      -5.687283      -154.7588
  39   1.0000      -5.687072      -154.7531
  40   1.0000      -5.686001      -154.7240
  41   1.0000      -5.685845      -154.7197
  42   1.0000      -5.681093      -154.5904
  43   1.0000      -5.680893      -154.5850
  44   1.0000      -5.636322      -153.3721
  45   1.0000      -5.636238      -153.3698
  46   1.0000      -5.634801      -153.3307
  47   1.0000      -5.634543      -153.3237
  48   1.0000      -5.630155      -153.2043
  49   1.0000      -5.630079      -153.2022
  50   1.0000      -5.629673      -153.1912
  51   1.0000      -5.629603      -153.1893
  52   1.0000      -5.628643      -153.1632
  53   1.0000      -5.628402      -153.1566
  54   1.0000      -5.627695      -153.1374
  55   1.0000      -5.627427      -153.1301
  56   1.0000      -2.367663       -64.4274
  57   1.0000      -1.434600       -39.0375
  58   1.0000      -1.380401       -37.5626
  59   1.0000      -1.379286       -37.5323
  60   1.0000      -0.641775       -17.4636
  61   1.0000      -0.641464       -17.4551
  62   1.0000      -0.628814       -17.1109
  63   1.0000      -0.589217       -16.0334
  64   1.0000      -0.588513       -16.0143
  65   1.0000      -0.573865       -15.6157
  66   1.0000      -0.573482       -15.6052
  67   1.0000      -0.489931       -13.3317
  68   1.0000      -0.488510       -13.2930
  69   1.0000      -0.485376       -13.2077
  70   1.0000      -0.484748       -13.1907
  71   1.0000      -0.422451       -11.4955
  72   1.0000      -0.419702       -11.4207
  73   1.0000      -0.408393       -11.1129
  74   1.0000      -0.403729       -10.9860
  75   1.0000      -0.369138       -10.0448
  76   1.0000      -0.365042        -9.9333
  77   1.0000      -0.289390        -7.8747
  78   1.0000      -0.288910        -7.8616
  79   1.0000      -0.276639        -7.5277
  80   1.0000      -0.276405        -7.5214
  81   1.0000      -0.260570        -7.0905
  82   1.0000      -0.255849        -6.9620
  83   1.0000      -0.241164        -6.5624
  84   1.0000      -0.238491        -6.4897
  85   1.0000      -0.193000        -5.2518
  86   1.0000      -0.192255        -5.2315
  87   1.0000      -0.189647        -5.1606
  88   1.0000      -0.189398        -5.1538
  89   1.0000      -0.181412        -4.9365
  90   1.0000      -0.180443        -4.9101
  91   1.0000      -0.175058        -4.7636
  92   1.0000      -0.150657        -4.0996
  93   1.0000      -0.147160        -4.0044
  94   1.0000      -0.146851        -3.9960
  95   1.0000      -0.135098        -3.6762
  96   1.0000      -0.132935        -3.6173
  97   1.0000      -0.100170        -2.7258
  98   1.0000      -0.099697        -2.7129
  99   1.0000      -0.090520        -2.4632
 100   1.0000      -0.086586        -2.3561
 101   1.0000      -0.084571        -2.3013
 102   1.0000      -0.072329        -1.9682
 103   1.0000      -0.070397        -1.9156
 104   1.0000      -0.047982        -1.3057
 105   1.0000      -0.040235        -1.0949
 106   1.0000      -0.035535        -0.9670
 107   1.0000      -0.033954        -0.9239
 108   1.0000      -0.029394        -0.7999
 109   1.0000      -0.014080        -0.3831
 110   1.0000      -0.004557        -0.1240
 111   1.0000      -0.002386        -0.0649
 112   1.0000       0.004652         0.1266
 113   1.0000       0.010678         0.2906
 114   1.0000       0.031706         0.8628
 115   1.0000       0.055501         1.5103
 116   0.0000       0.165535         4.5044
 117   0.0000       0.170447         4.6381
 118   0.0000       0.185848         5.0572
 119   0.0000       0.197855         5.3839
 120   0.0000       0.197964         5.3869

MULLIKEN ATOMIC CHARGES AND SPIN POPULATIONS
--------------------------------------------
   0 V :    0.443195    1.197129
   1 S :   -0.260374   -0.025206
   2 S :   -0.236553   -0.022248
   3 S :   -0.236586   -0.022752
   4 S :   -0.260039   -0.025343
   5 O :   -0.504215   -0.138846
   6 C :   -0.186469    0.009686
   7 C :   -0.057317    0.009027
   8 C :   -0.055317    0.009090
   9 C :   -0.187238    0.009561
  10 S :   -0.040261   -0.000525
  11 S :   -0.063399   -0.000097
  12 S :   -0.040200   -0.000544
  13 S :   -0.062218   -0.000134
  14 C :   -0.305028    0.000196
  15 C :   -0.325274    0.000460
  16 C :   -0.324245    0.000472
  17 C :   -0.306074    0.000239
  18 C :   -0.105779   -0.000065
  19 H :    0.152817   -0.000098
  20 H :    0.100510    0.000061
  21 H :    0.044591    0.000105
  22 H :    0.077574    0.000015
  23 H :    0.096496   -0.000011
  24 H :    0.136798   -0.000096
  25 C :   -0.105139   -0.000036
  26 H :    0.096697   -0.000004
  27 H :    0.136990   -0.000104
  28 H :    0.077658    0.000008
  29 H :    0.044689    0.000096
  30 H :    0.153040   -0.000099
  31 H :    0.100668    0.000062
Sum of atomic charges         :   -2.0000000

LOEWDIN ATOMIC CHARGES AND SPIN POPULATIONS
-------------------------------------------
   0 V :   -0.249509    1.150595
   1 S :    0.081229   -0.016538
   2 S :    0.107242   -0.014796
   3 S :    0.106430   -0.015266
   4 S :    0.081038   -0.016701
   5 O :   -0.349137   -0.124211
   6 C :   -0.549383    0.010644
   7 C :   -0.541450    0.009747
   8 C :   -0.542303    0.009836
   9 C :   -0.549353    0.010428
  10 S :    0.331486   -0.001025
  11 S :    0.321221   -0.001139
  12 S :    0.331942   -0.001050
  13 S :    0.322425   -0.001146
  14 C :   -0.291000    0.000086
  15 C :   -0.300621    0.000233
  16 C :   -0.301179    0.000232
  17 C :   -0.291243    0.000116
  18 C :   -0.185408   -0.000030
  19 H :    0.068666   -0.000016
  20 H :    0.044940    0.000018
  21 H :    0.046653    0.000026
  22 H :    0.053520    0.000015
  23 H :    0.049541   -0.000006
  24 H :    0.063102   -0.000029
  25 C :   -0.185413   -0.000034
  26 H :    0.049495   -0.000001
  27 H :    0.063123   -0.000031
  28 H :    0.053567    0.000013
  29 H :    0.046682    0.000026
  30 H :    0.068668   -0.000017
  31 H :    0.045031    0.000021

  Mayer bond orders larger than 0.100000
B(  0-V ,  1-S ) :   0.7915 B(  0-V ,  2-S ) :   0.7938 B(  0-V ,  3-S ) :   0.7939
B(  0-V ,  4-S ) :   0.7900 B(  0-V ,  5-O ) :   2.1057 B(  1-S ,  8-C ) :   1.0896
B(  2-S ,  6-C ) :   1.1411 B(  3-S ,  9-C ) :   1.1431 B(  4-S ,  7-C ) :   1.0905
B(  6-C ,  7-C ) :   1.5386 B(  6-C , 10-S ) :   0.9351 B(  7-C , 11-S ) :   0.9520
B(  8-C ,  9-C ) :   1.5403 B(  8-C , 13-S ) :   0.9524 B(  9-C , 12-S ) :   0.9362
B( 10-S , 16-C ) :   1.0065 B( 11-S , 14-C ) :   1.0018 B( 12-S , 15-C ) :   1.0066
B( 13-S , 17-C ) :   1.0021 B( 14-C , 18-C ) :   0.9068 B( 14-C , 23-H ) :   0.9756
B( 14-C , 24-H ) :   0.9662 B( 15-C , 25-C ) :   0.8724 B( 15-C , 30-H ) :   0.9908
B( 15-C , 31-H ) :   0.9608 B( 16-C , 18-C ) :   0.8726 B( 16-C , 19-H ) :   0.9916
B( 16-C , 20-H ) :   0.9605 B( 17-C , 25-C ) :   0.9056 B( 17-C , 26-H ) :   0.9756
B( 17-C , 27-H ) :   0.9662 B( 18-C , 21-H ) :   0.9558 B( 18-C , 22-H ) :   0.9694
B( 25-C , 28-H ) :   0.9698 B( 25-C , 29-H ) :   0.9555

FINAL SINGLE POINT ENERGY     -4592.673437701746

DIPOLE MOMENT
-------------
                                X             Y             Z
Electronic contribution:     -2.63565     -26.47073       2.76558
Nuclear contribution   :      2.93424      29.44970      -3.06250
                        -----------------------------------------
Total Dipole Moment    :      0.29859       2.97897      -0.29692
                        -----------------------------------------
Magnitude (a.u.)       :      3.00859
Magnitude (Debye)      :      7.64722

Rotational constants in cm-1:     0.012749     0.002548     0.002431
Rotational constants in MHz :   382.218949    76.372883    72.882416

                             ****ORCA TERMINATED NORMALLY****
TOTAL RUN TIME: 0 days 0 hours 27 minutes 34 seconds 258 msec
