                         Program Version 5.0.4 -  RELEASE  -
|  1> ! nofrozencore ReducedPop printbasis
|  2> ! B3LYP TZVP
|  3>
|  4> %basis
|  5> newgto V "CP(PPP)" end
|  6> end
|  7>
|  8> %pal
|  9> nprocs 8
| 10> end
| 11>
| 12> % sym SymThresh 1e-2 end
| 13> * xyz -2 2
| 14> V 1.0946477182740946 0.17050726756528872 0.13624818549521267
| 15> S 0.27892517234201153 1.8369081432023517 -1.44183831536718
| 16> S -0.08612093819598025 1.54676618650808 1.7603622159900774
| 17> S 0.8056911649568301 -1.4376249897641262 -1.6682892600820765
| 18> S 0.4711468099513251 -1.720538686255927 1.5402610535456054
| 19> O 2.6559092319422644 0.4173888347251267 0.3256199020324967
| 20> C -0.32327613222087115 0.40306031552417326 3.416464155886882
| 21> C -0.09539971040099668 -0.9448668142981571 3.3241291803439976
| 22> C 0.4300097910514441 0.9964740869894125 -3.2913758596654543
| 23> C 0.6474218068989047 -0.3536311630181598 -3.3857346259838765
| 24> S -0.7763466977823296 1.202592722360914 4.6841744849939175
| 25> S -0.23764961202451793 -2.0087015103537347 4.466119006219183
| 26> S 0.7739869071533187 -1.2025704204259424 -4.683397547537664
| 27> S 0.2579797484658766 2.010915879876171 -4.461831218690183
| 28> C -2.063170539240182 -1.9924073678477672 4.789731179841652
| 29> C -0.9347989058139898 -1.0867154756665929 -5.392760655771003
| 30> C -2.490321729738612 0.5549468149581107 4.966052735784683
| 31> C -1.3443197598225498 1.4642311769040772 -5.216526879341536
| 32> C -2.596857937140504 -0.824885632786687 5.63954776608856
| 33> H -2.9711223031227396 0.5608897858214813 3.985613717027875
| 34> H -2.9623615331848168 1.321315737536877 5.5884291246949065
| 35> H -3.6501334831550163 -1.0192662947416489 5.895306021829763
| 36> H -2.0381330373754647 -0.7972468032531287 6.582187195281697
| 37> H -2.2478761802748397 -2.945159759900795 5.2954289833006065
| 38> H -2.537266073083005 -2.024825997091179 3.8065600973965537
| 39> C -1.2841201283328778 0.22192179815958873 -6.124058314576696
| 40> H -1.6726174682847266 2.3369528688597248 -5.7894962268659516
| 41> H -2.030935897310501 1.3215895108259104 -4.379444898089656
| 42> H -0.5319850551655074 0.3972330306301583 -6.902039353372735
| 43> H -2.2525845556443556 0.10181967173718479 -6.6340162308767265
| 44> H -1.611671050516811 -1.2731836390861646 -4.556329829176039
| 45> H -0.9913517308291449 -1.935871667993178 -6.0807348485851085
| 46> *
| 47>
| 48> % eprnmr
| 49> gtensor true
| 50> Nuclei = all H {aiso,adip,aorb,fgrad,rho}
| 51> Nuclei = all V {aiso,adip,aorb,fgrad,rho}
| 52> end
| 53>
| 54>                          ****END OF INPUT****

CARTESIAN COORDINATES (ANGSTROEM)
---------------------------------
  V      1.095799    0.170687    0.136474
  S      0.280076    1.837088   -1.441613
  S     -0.084970    1.546946    1.760588
  S      0.806842   -1.437445   -1.668064
  S      0.472298   -1.720359    1.540486
  O      2.657060    0.417569    0.325845
  C     -0.322125    0.403240    3.416690
  C     -0.094249   -0.944687    3.324355
  C      0.431161    0.996654   -3.291150
  C      0.648573   -0.353451   -3.385509
  S     -0.775195    1.202773    4.684400
  S     -0.236498   -2.008521    4.466344
  S      0.775138   -1.202390   -4.683172
  S      0.259131    2.011096   -4.461606
  C     -2.062019   -1.992227    4.789957
  C     -0.933648   -1.086535   -5.392535
  C     -2.489171    0.555127    4.966278
  C     -1.343169    1.464411   -5.216301
  C     -2.595707   -0.824706    5.639773
  H     -2.969971    0.561070    3.985839
  H     -2.961210    1.321496    5.588655
  H     -3.648982   -1.019086    5.895531
  H     -2.036982   -0.797067    6.582413
  H     -2.246725   -2.944980    5.295654
  H     -2.536115   -2.024646    3.806785
  C     -1.282969    0.222102   -6.123833
  H     -1.671466    2.337133   -5.789271
  H     -2.029785    1.321770   -4.379219
  H     -0.530834    0.397413   -6.901814
  H     -2.251433    0.102000   -6.633791
  H     -1.610520   -1.273004   -4.556104
  H     -0.990201   -1.935692   -6.080509

 Total Charge           Charge          ....   -2
 Multiplicity           Mult            ....    2
 Number of Electrons    NEL             ....  233
 Basis Dimension        Dim             ....  517

ORBITAL ENERGIES
----------------
                 SPIN UP ORBITALS
  NO   OCC          E(Eh)            E(eV)
   0   1.0000    -196.631506     -5350.6153
   1   1.0000     -88.678901     -2413.0756
   2   1.0000     -88.678774     -2413.0721
   3   1.0000     -88.678756     -2413.0716
   4   1.0000     -88.678557     -2413.0662
   5   1.0000     -88.606445     -2411.1039
   6   1.0000     -88.606310     -2411.1003
   7   1.0000     -88.606267     -2411.0991
   8   1.0000     -88.606180     -2411.0967
   9   1.0000     -22.007929      -598.8662
  10   1.0000     -18.847382      -512.8633
  11   1.0000     -18.514788      -503.8130
  12   1.0000     -18.509033      -503.6564
  13   1.0000     -18.508996      -503.6554
  14   1.0000     -10.017445      -272.5885
  15   1.0000     -10.017361      -272.5863
  16   1.0000     -10.017318      -272.5851
  17   1.0000     -10.017199      -272.5818
  18   1.0000     -10.010675      -272.4043
  19   1.0000     -10.010331      -272.3950
  20   1.0000      -9.989225      -271.8206
  21   1.0000      -9.989137      -271.8182
  22   1.0000      -9.988503      -271.8010
  23   1.0000      -9.988426      -271.7989
  24   1.0000      -7.738192      -210.5669
  25   1.0000      -7.738150      -210.5658
  26   1.0000      -7.737747      -210.5548
  27   1.0000      -7.737588      -210.5505
  28   1.0000      -7.657647      -208.3752
  29   1.0000      -7.657541      -208.3723
  30   1.0000      -7.657409      -208.3687
  31   1.0000      -7.657359      -208.3673
  32   1.0000      -5.703080      -155.1887
  33   1.0000      -5.703028      -155.1873
  34   1.0000      -5.702659      -155.1772
  35   1.0000      -5.702496      -155.1728
  36   1.0000      -5.698503      -155.0642
  37   1.0000      -5.698444      -155.0625
  38   1.0000      -5.698104      -155.0533
  39   1.0000      -5.697935      -155.0487
  40   1.0000      -5.693188      -154.9195
  41   1.0000      -5.693157      -154.9187
  42   1.0000      -5.692741      -154.9074
  43   1.0000      -5.692581      -154.9030
  44   1.0000      -5.623560      -153.0248
  45   1.0000      -5.623442      -153.0216
  46   1.0000      -5.623328      -153.0185
  47   1.0000      -5.623275      -153.0171
  48   1.0000      -5.615972      -152.8184
  49   1.0000      -5.615861      -152.8153
  50   1.0000      -5.615742      -152.8121
  51   1.0000      -5.615685      -152.8106
  52   1.0000      -5.615276      -152.7994
  53   1.0000      -5.615171      -152.7966
  54   1.0000      -5.615026      -152.7926
  55   1.0000      -5.614970      -152.7911
  56   1.0000      -2.399730       -65.3000
  57   1.0000      -1.441730       -39.2315
  58   1.0000      -1.429176       -38.8899
  59   1.0000      -1.427775       -38.8517
  60   1.0000      -0.672035       -18.2870
  61   1.0000      -0.670020       -18.2322
  62   1.0000      -0.609744       -16.5920
  63   1.0000      -0.609086       -16.5741
  64   1.0000      -0.607494       -16.5307
  65   1.0000      -0.603656       -16.4263
  66   1.0000      -0.602984       -16.4080
  67   1.0000      -0.496101       -13.4996
  68   1.0000      -0.495118       -13.4728
  69   1.0000      -0.466268       -12.6878
  70   1.0000      -0.464337       -12.6352
  71   1.0000      -0.413677       -11.2567
  72   1.0000      -0.406372       -11.0580
  73   1.0000      -0.399588       -10.8733
  74   1.0000      -0.390789       -10.6339
  75   1.0000      -0.379106       -10.3160
  76   1.0000      -0.373113       -10.1529
  77   1.0000      -0.297870        -8.1055
  78   1.0000      -0.297430        -8.0935
  79   1.0000      -0.286133        -7.7861
  80   1.0000      -0.285369        -7.7653
  81   1.0000      -0.276346        -7.5198
  82   1.0000      -0.273133        -7.4323
  83   1.0000      -0.248680        -6.7669
  84   1.0000      -0.248125        -6.7518
  85   1.0000      -0.203149        -5.5280
  86   1.0000      -0.201900        -5.4940
  87   1.0000      -0.199369        -5.4251
  88   1.0000      -0.198191        -5.3930
  89   1.0000      -0.195257        -5.3132
  90   1.0000      -0.194547        -5.2939
  91   1.0000      -0.180572        -4.9136
  92   1.0000      -0.161194        -4.3863
  93   1.0000      -0.155196        -4.2231
  94   1.0000      -0.152875        -4.1599
  95   1.0000      -0.147325        -4.0089
  96   1.0000      -0.145924        -3.9708
  97   1.0000      -0.102175        -2.7803
  98   1.0000      -0.087435        -2.3792
  99   1.0000      -0.083462        -2.2711
 100   1.0000      -0.072991        -1.9862
 101   1.0000      -0.071793        -1.9536
 102   1.0000      -0.062165        -1.6916
 103   1.0000      -0.052051        -1.4164
 104   1.0000      -0.042921        -1.1679
 105   1.0000      -0.030275        -0.8238
 106   1.0000      -0.027376        -0.7449
 107   1.0000      -0.020828        -0.5668
 108   1.0000      -0.020135        -0.5479
 109   1.0000      -0.002292        -0.0624
 110   1.0000      -0.000040        -0.0011
 111   1.0000       0.015480         0.4212
 112   1.0000       0.018586         0.5057
 113   1.0000       0.022514         0.6126
 114   1.0000       0.030042         0.8175
 115   1.0000       0.033358         0.9077
 116   1.0000       0.051886         1.4119
 117   0.0000       0.162251         4.4151
 118   0.0000       0.170003         4.6260
 119   0.0000       0.197116         5.3638
 120   0.0000       0.197757         5.3812
 121   0.0000       0.204480         5.5642

                 SPIN DOWN ORBITALS
  NO   OCC          E(Eh)            E(eV)
   0   1.0000    -196.631645     -5350.6191
   1   1.0000     -88.678883     -2413.0751
   2   1.0000     -88.678758     -2413.0717
   3   1.0000     -88.678737     -2413.0711
   4   1.0000     -88.678540     -2413.0658
   5   1.0000     -88.606655     -2411.1097
   6   1.0000     -88.606521     -2411.1060
   7   1.0000     -88.606483     -2411.1050
   8   1.0000     -88.606397     -2411.1026
   9   1.0000     -21.994132      -598.4908
  10   1.0000     -18.850691      -512.9534
  11   1.0000     -18.509998      -503.6827
  12   1.0000     -18.494436      -503.2592
  13   1.0000     -18.493823      -503.2425
  14   1.0000     -10.017439      -272.5884
  15   1.0000     -10.017355      -272.5861
  16   1.0000     -10.017312      -272.5849
  17   1.0000     -10.017194      -272.5817
  18   1.0000     -10.010656      -272.4038
  19   1.0000     -10.010313      -272.3945
  20   1.0000      -9.988702      -271.8064
  21   1.0000      -9.988597      -271.8035
  22   1.0000      -9.987982      -271.7868
  23   1.0000      -9.987890      -271.7843
  24   1.0000      -7.738175      -210.5664
  25   1.0000      -7.738133      -210.5653
  26   1.0000      -7.737732      -210.5544
  27   1.0000      -7.737572      -210.5500
  28   1.0000      -7.657840      -208.3804
  29   1.0000      -7.657736      -208.3776
  30   1.0000      -7.657608      -208.3741
  31   1.0000      -7.657558      -208.3728
  32   1.0000      -5.703074      -155.1885
  33   1.0000      -5.703022      -155.1871
  34   1.0000      -5.702655      -155.1771
  35   1.0000      -5.702492      -155.1727
  36   1.0000      -5.698500      -155.0641
  37   1.0000      -5.698440      -155.0624
  38   1.0000      -5.698102      -155.0532
  39   1.0000      -5.697932      -155.0486
  40   1.0000      -5.693116      -154.9176
  41   1.0000      -5.693083      -154.9167
  42   1.0000      -5.692675      -154.9056
  43   1.0000      -5.692514      -154.9012
  44   1.0000      -5.623888      -153.0338
  45   1.0000      -5.623772      -153.0306
  46   1.0000      -5.623670      -153.0278
  47   1.0000      -5.623618      -153.0264
  48   1.0000      -5.616413      -152.8304
  49   1.0000      -5.616302      -152.8274
  50   1.0000      -5.616190      -152.8243
  51   1.0000      -5.616131      -152.8227
  52   1.0000      -5.615435      -152.8038
  53   1.0000      -5.615331      -152.8009
  54   1.0000      -5.615189      -152.7971
  55   1.0000      -5.615134      -152.7956
  56   1.0000      -2.358059       -64.1660
  57   1.0000      -1.424155       -38.7532
  58   1.0000      -1.370678       -37.2981
  59   1.0000      -1.370596       -37.2958
  60   1.0000      -0.671588       -18.2748
  61   1.0000      -0.669600       -18.2207
  62   1.0000      -0.616121       -16.7655
  63   1.0000      -0.609486       -16.5850
  64   1.0000      -0.607253       -16.5242
  65   1.0000      -0.603345       -16.4178
  66   1.0000      -0.602672       -16.3995
  67   1.0000      -0.495920       -13.4947
  68   1.0000      -0.494940       -13.4680
  69   1.0000      -0.465949       -12.6791
  70   1.0000      -0.463978       -12.6255
  71   1.0000      -0.413839       -11.2611
  72   1.0000      -0.406571       -11.0634
  73   1.0000      -0.400250       -10.8914
  74   1.0000      -0.391573       -10.6552
  75   1.0000      -0.378824       -10.3083
  76   1.0000      -0.373014       -10.1502
  77   1.0000      -0.297732        -8.1017
  78   1.0000      -0.297302        -8.0900
  79   1.0000      -0.286035        -7.7834
  80   1.0000      -0.285298        -7.7634
  81   1.0000      -0.275899        -7.5076
  82   1.0000      -0.272798        -7.4232
  83   1.0000      -0.248617        -6.7652
  84   1.0000      -0.248063        -6.7501
  85   1.0000      -0.202719        -5.5163
  86   1.0000      -0.201603        -5.4859
  87   1.0000      -0.199079        -5.4172
  88   1.0000      -0.197994        -5.3877
  89   1.0000      -0.195167        -5.3108
  90   1.0000      -0.194477        -5.2920
  91   1.0000      -0.178240        -4.8502
  92   1.0000      -0.160196        -4.3591
  93   1.0000      -0.154882        -4.2145
  94   1.0000      -0.152165        -4.1406
  95   1.0000      -0.147036        -4.0010
  96   1.0000      -0.145667        -3.9638
  97   1.0000      -0.101162        -2.7528
  98   1.0000      -0.085869        -2.3366
  99   1.0000      -0.082458        -2.2438
 100   1.0000      -0.073927        -2.0117
 101   1.0000      -0.073265        -1.9936
 102   1.0000      -0.060210        -1.6384
 103   1.0000      -0.051790        -1.4093
 104   1.0000      -0.039857        -1.0846
 105   1.0000      -0.030022        -0.8169
 106   1.0000      -0.023397        -0.6367
 107   1.0000      -0.020833        -0.5669
 108   1.0000      -0.019694        -0.5359
 109   1.0000       0.000664         0.0181
 110   1.0000       0.001319         0.0359
 111   1.0000       0.015640         0.4256
 112   1.0000       0.017903         0.4872
 113   1.0000       0.024280         0.6607
 114   1.0000       0.029715         0.8086
 115   1.0000       0.051020         1.3883
 116   0.0000       0.162702         4.4273
 117   0.0000       0.164102         4.4654
 118   0.0000       0.170263         4.6331
 119   0.0000       0.197526         5.3749
 120   0.0000       0.197856         5.3839

MULLIKEN ATOMIC CHARGES AND SPIN POPULATIONS
--------------------------------------------
   0 V :    0.533843    1.143654
   1 S :   -0.312099   -0.035788
   2 S :   -0.310130   -0.034883
   3 S :   -0.312751   -0.035800
   4 S :   -0.310032   -0.034647
   5 O :   -0.514272   -0.129568
   6 C :   -0.149859    0.023172
   7 C :   -0.148780    0.022930
   8 C :   -0.150621    0.023821
   9 C :   -0.150925    0.023965
  10 S :    0.038840    0.007157
  11 S :    0.038809    0.006985
  12 S :    0.043356    0.007707
  13 S :    0.042333    0.007529
  14 C :   -0.345061    0.000740
  15 C :   -0.343767    0.000710
  16 C :   -0.343746    0.000687
  17 C :   -0.343220    0.000771
  18 C :   -0.107075   -0.001303
  19 H :    0.149605    0.000162
  20 H :    0.100039   -0.000050
  21 H :    0.050751    0.000822
  22 H :    0.077105    0.000666
  23 H :    0.099822   -0.000049
  24 H :    0.150091    0.000148
  25 C :   -0.108929   -0.001383
  26 H :    0.099390   -0.000048
  27 H :    0.149665    0.000171
  28 H :    0.076949    0.000714
  29 H :    0.051152    0.000869
  30 H :    0.149831    0.000187
  31 H :    0.099684   -0.000050
Sum of atomic charges         :   -2.0000000

LOEWDIN ATOMIC CHARGES AND SPIN POPULATIONS
-------------------------------------------
   0 V :   -0.292454    1.096050
   1 S :   -0.024669   -0.025977
   2 S :   -0.020350   -0.025206
   3 S :   -0.024989   -0.025976
   4 S :   -0.020362   -0.025049
   5 O :   -0.348020   -0.115951
   6 C :   -0.562735    0.023646
   7 C :   -0.561509    0.023487
   8 C :   -0.561881    0.024291
   9 C :   -0.563356    0.024395
  10 S :    0.454000    0.005262
  11 S :    0.453443    0.005134
  12 S :    0.459776    0.005734
  13 S :    0.458535    0.005609
  14 C :   -0.284507    0.000476
  15 C :   -0.284312    0.000493
  16 C :   -0.284706    0.000453
  17 C :   -0.284265    0.000513
  18 C :   -0.180718    0.000504
  19 H :    0.067203    0.000112
  20 H :    0.046249   -0.000014
  21 H :    0.047309    0.000310
  22 H :    0.052517    0.000253
  23 H :    0.046215   -0.000014
  24 H :    0.067322    0.000106
  25 C :   -0.180477    0.000541
  26 H :    0.046121   -0.000012
  27 H :    0.067237    0.000118
  28 H :    0.052483    0.000270
  29 H :    0.047365    0.000332
  30 H :    0.067359    0.000124
  31 H :    0.046173   -0.000012

  Mayer bond orders larger than 0.100000
B(  0-V ,  1-S ) :   0.7863 B(  0-V ,  2-S ) :   0.7877 B(  0-V ,  3-S ) :   0.7887
B(  0-V ,  4-S ) :   0.7847 B(  0-V ,  5-O ) :   2.0964 B(  1-S ,  8-C ) :   0.9273
B(  2-S ,  6-C ) :   0.9334 B(  3-S ,  9-C ) :   0.9254 B(  4-S ,  7-C ) :   0.9357
B(  6-C ,  7-C ) :   1.5704 B(  6-C , 10-S ) :   1.1624 B(  7-C , 11-S ) :   1.1604
B(  8-C ,  9-C ) :   1.5718 B(  8-C , 13-S ) :   1.1714 B(  9-C , 12-S ) :   1.1748
B( 10-S , 16-C ) :   0.9303 B( 11-S , 14-C ) :   0.9318 B( 12-S , 15-C ) :   0.9266
B( 13-S , 17-C ) :   0.9285 B( 14-C , 18-C ) :   0.8822 B( 14-C , 23-H ) :   0.9675
B( 14-C , 24-H ) :   0.9721 B( 15-C , 25-C ) :   0.8828 B( 15-C , 30-H ) :   0.9721
B( 15-C , 31-H ) :   0.9669 B( 16-C , 18-C ) :   0.8825 B( 16-C , 19-H ) :   0.9724
B( 16-C , 20-H ) :   0.9672 B( 17-C , 25-C ) :   0.8826 B( 17-C , 26-H ) :   0.9673
B( 17-C , 27-H ) :   0.9716 B( 18-C , 21-H ) :   0.9519 B( 18-C , 22-H ) :   0.9753
B( 25-C , 28-H ) :   0.9755 B( 25-C , 29-H ) :   0.9519

FINAL SINGLE POINT ENERGY     -4592.556568730805

DIPOLE MOMENT
-------------
                                X             Y             Z
Electronic contribution:     25.89275       4.01948       3.21036
Nuclear contribution   :    -28.97921      -4.49881      -3.62076
                        -----------------------------------------
Total Dipole Moment    :     -3.08646      -0.47933      -0.41040
                        -----------------------------------------
Magnitude (a.u.)       :      3.15030
Magnitude (Debye)      :      8.00743

Rotational constants in cm-1:     0.012730     0.002545     0.002427
Rotational constants in MHz :   381.644868    76.309739    72.745653

                             ****ORCA TERMINATED NORMALLY****
TOTAL RUN TIME: 0 days 0 hours 27 minutes 36 seconds 277 msec
