                         Program Version 5.0.4 -  RELEASE  -
|  1> ! nofrozencore ReducedPop printbasis
|  2> ! B3LYP TZVP
|  3>
|  4> %basis
|  5> newgto V "CP(PPP)" end
|  6> end
|  7>
|  8> %pal
|  9> nprocs 4
| 10> end
| 11>
| 12> % sym SymThresh 1e-2 end
| 13> * xyz -2 2
| 14> V 0.43262880973956536 -1.0222545883935337 -0.10923787766930534
| 15> S -1.9663034604308989 -1.2749592791741131 0.31948685224637496
| 16> S -0.22144708309563163 -0.2405144595897616 -2.3286127219754
| 17> S 0.5065133095801858 -0.41872645370779926 2.26404618694792
| 18> S 2.267357126569305 0.5883294996425565 -0.3924467843054944
| 19> O 1.0501467064595247 -2.486776942388853 -0.26103475716149294
| 20> C 1.1960194446508912 0.5950748156517164 -2.9565961884525334
| 21> C 2.2122754983032964 0.956334595824894 -2.128861821121403
| 22> C -2.0766584781913457 -1.3278360556125575 2.0851473657366015
| 23> C -1.0458409505804696 -0.9735904334989385 2.897480010798054
| 24> S 1.157533737330397 1.1030535085154614 -4.6955095627237995
| 25> S 3.7180689283481083 1.7671789294550113 -2.701296677624579
| 26> S -1.1816558595090936 -0.9834847335798277 4.696508312436084
| 27> S -3.6773261493435703 -1.8729114750571578 2.7158260039846462
| 28> C 2.9515803511172627 3.7146799633195613 -3.164098967244178
| 29> C -2.375555300286662 0.3317419789586449 5.0289739798158175
| 30> C 1.0942537738782323 2.6508729932682633 -4.6701177489038965
| 31> C -4.364858939909721 -0.30268037146204646 3.5027389149378223
| 32> C 2.285143059944153 3.6088644664841096 -4.565818100754281
| 33> H 0.32418926216290733 3.0023286482881635 -3.965129251451513
| 34> H 0.6724320266778891 2.8477482245739107 -5.666983601016506
| 35> H 1.8412902436722063 4.59768483576179 -4.924839937750324
| 36> H 3.0561114956473108 3.312870037829852 -5.2897479214034
| 37> H 3.7678639639048024 4.436917337957576 -3.0982162449528987
| 38> H 2.2165835940429144 3.8803107102889016 -2.3690838665211986
| 39> C -3.857670292513462 -0.017445255860163517 4.917768754362396
| 40> H -5.450609220480842 -0.43698712747397983 3.5121502182101034
| 41> H -4.1284049316670846 0.5168298089390602 2.8210931782776876
| 42> H -4.073987715074657 -0.8806888112043958 5.556558176118212
| 43> H -4.423717285268123 0.8353313852364005 5.328274332691689
| 44> H -2.1265198127024902 1.1772498051140052 4.383172874076016
| 45> H -2.1620432323796086 0.6334739166488726 6.059858291911872
| 46> *
| 47>
| 48> % eprnmr
| 49> gtensor true
| 50> Nuclei = all H {aiso,adip,aorb,fgrad,rho}
| 51> Nuclei = all V {aiso,adip,aorb,fgrad,rho}
| 52> end
| 53>
| 54>                          ****END OF INPUT****

CARTESIAN COORDINATES (ANGSTROEM)
---------------------------------
  V      0.433127   -1.023316   -0.109421
  S     -1.965805   -1.276021    0.319303
  S     -0.220949   -0.241576   -2.328796
  S      0.507011   -0.419788    2.263863
  S      2.267855    0.587268   -0.392630
  O      1.050645   -2.487838   -0.261218
  C      1.196518    0.594013   -2.956780
  C      2.212774    0.955273   -2.129045
  C     -2.076160   -1.328898    2.084964
  C     -1.045343   -0.974652    2.897297
  S      1.158032    1.101992   -4.695693
  S      3.718567    1.766117   -2.701480
  S     -1.181158   -0.984546    4.696325
  S     -3.676828   -1.873973    2.715643
  C      2.952079    3.713618   -3.164282
  C     -2.375057    0.330681    5.028791
  C      1.094752    2.649812   -4.670301
  C     -4.364361   -0.303742    3.502556
  C      2.285641    3.607803   -4.566001
  H      0.324687    3.001267   -3.965313
  H      0.672930    2.846687   -5.667167
  H      1.841788    4.596623   -4.925023
  H      3.056610    3.311809   -5.289931
  H      3.768362    4.435856   -3.098400
  H      2.217082    3.879249   -2.369267
  C     -3.857172   -0.018507    4.917585
  H     -5.450111   -0.438049    3.511967
  H     -4.127907    0.515768    2.820910
  H     -4.073490   -0.881750    5.556375
  H     -4.423219    0.834270    5.328091
  H     -2.126022    1.176188    4.382990
  H     -2.161545    0.632412    6.059675

 Total Charge           Charge          ....   -2
 Multiplicity           Mult            ....    2
 Number of Electrons    NEL             ....  233
 Basis Dimension        Dim             ....  517

ORBITAL ENERGIES
----------------
                 SPIN UP ORBITALS
  NO   OCC          E(Eh)            E(eV)
   0   1.0000    -196.640881     -5350.8704
   1   1.0000     -88.679293     -2413.0862
   2   1.0000     -88.677646     -2413.0414
   3   1.0000     -88.675939     -2412.9950
   4   1.0000     -88.667820     -2412.7740
   5   1.0000     -88.615147     -2411.3407
   6   1.0000     -88.612671     -2411.2734
   7   1.0000     -88.612375     -2411.2653
   8   1.0000     -88.611315     -2411.2365
   9   1.0000     -22.016686      -599.1045
  10   1.0000     -18.857968      -513.1514
  11   1.0000     -18.523509      -504.0503
  12   1.0000     -18.517741      -503.8934
  13   1.0000     -18.517695      -503.8921
  14   1.0000     -10.024720      -272.7865
  15   1.0000     -10.017202      -272.5819
  16   1.0000     -10.014007      -272.4950
  17   1.0000     -10.009179      -272.3636
  18   1.0000     -10.004988      -272.2496
  19   1.0000     -10.003061      -272.1971
  20   1.0000      -9.992898      -271.9206
  21   1.0000      -9.992286      -271.9039
  22   1.0000      -9.991547      -271.8838
  23   1.0000      -9.991150      -271.8730
  24   1.0000      -7.730649      -210.3616
  25   1.0000      -7.730293      -210.3520
  26   1.0000      -7.729938      -210.3423
  27   1.0000      -7.729620      -210.3337
  28   1.0000      -7.669698      -208.7031
  29   1.0000      -7.667094      -208.6322
  30   1.0000      -7.666818      -208.6247
  31   1.0000      -7.665589      -208.5913
  32   1.0000      -5.695957      -154.9949
  33   1.0000      -5.695501      -154.9825
  34   1.0000      -5.695475      -154.9818
  35   1.0000      -5.694392      -154.9523
  36   1.0000      -5.692093      -154.8897
  37   1.0000      -5.691762      -154.8807
  38   1.0000      -5.691544      -154.8748
  39   1.0000      -5.689774      -154.8266
  40   1.0000      -5.685374      -154.7069
  41   1.0000      -5.685068      -154.6986
  42   1.0000      -5.684475      -154.6824
  43   1.0000      -5.684256      -154.6765
  44   1.0000      -5.634478      -153.3219
  45   1.0000      -5.631926      -153.2525
  46   1.0000      -5.631659      -153.2452
  47   1.0000      -5.630473      -153.2130
  48   1.0000      -5.628076      -153.1477
  49   1.0000      -5.627798      -153.1402
  50   1.0000      -5.625544      -153.0788
  51   1.0000      -5.625257      -153.0710
  52   1.0000      -5.625086      -153.0664
  53   1.0000      -5.624789      -153.0583
  54   1.0000      -5.624081      -153.0390
  55   1.0000      -5.623491      -153.0230
  56   1.0000      -2.410379       -65.5897
  57   1.0000      -1.451738       -39.5038
  58   1.0000      -1.440198       -39.1898
  59   1.0000      -1.439052       -39.1586
  60   1.0000      -0.673196       -18.3186
  61   1.0000      -0.644563       -17.5395
  62   1.0000      -0.618990       -16.8436
  63   1.0000      -0.594014       -16.1640
  64   1.0000      -0.592934       -16.1346
  65   1.0000      -0.577373       -15.7111
  66   1.0000      -0.576277       -15.6813
  67   1.0000      -0.497381       -13.5344
  68   1.0000      -0.491500       -13.3744
  69   1.0000      -0.486779       -13.2459
  70   1.0000      -0.475821       -12.9478
  71   1.0000      -0.426791       -11.6136
  72   1.0000      -0.422057       -11.4847
  73   1.0000      -0.411285       -11.1916
  74   1.0000      -0.405343       -11.0299
  75   1.0000      -0.375559       -10.2195
  76   1.0000      -0.371205       -10.1010
  77   1.0000      -0.305827        -8.3220
  78   1.0000      -0.293335        -7.9820
  79   1.0000      -0.277960        -7.5637
  80   1.0000      -0.277566        -7.5530
  81   1.0000      -0.258856        -7.0438
  82   1.0000      -0.253102        -6.8873
  83   1.0000      -0.242776        -6.6063
  84   1.0000      -0.238801        -6.4981
  85   1.0000      -0.204502        -5.5648
  86   1.0000      -0.195301        -5.3144
  87   1.0000      -0.193039        -5.2529
  88   1.0000      -0.191251        -5.2042
  89   1.0000      -0.185772        -5.0551
  90   1.0000      -0.184869        -5.0305
  91   1.0000      -0.179962        -4.8970
  92   1.0000      -0.149968        -4.0808
  93   1.0000      -0.148740        -4.0474
  94   1.0000      -0.143303        -3.8995
  95   1.0000      -0.141343        -3.8461
  96   1.0000      -0.136464        -3.7134
  97   1.0000      -0.097638        -2.6569
  98   1.0000      -0.094631        -2.5751
  99   1.0000      -0.088875        -2.4184
 100   1.0000      -0.082100        -2.2341
 101   1.0000      -0.080405        -2.1879
 102   1.0000      -0.079666        -2.1678
 103   1.0000      -0.069422        -1.8891
 104   1.0000      -0.050140        -1.3644
 105   1.0000      -0.038630        -1.0512
 106   1.0000      -0.037404        -1.0178
 107   1.0000      -0.034487        -0.9384
 108   1.0000      -0.031014        -0.8439
 109   1.0000      -0.013573        -0.3693
 110   1.0000      -0.004702        -0.1280
 111   1.0000      -0.003287        -0.0895
 112   1.0000       0.005853         0.1593
 113   1.0000       0.010392         0.2828
 114   1.0000       0.015599         0.4245
 115   1.0000       0.032838         0.8936
 116   1.0000       0.058926         1.6035
 117   0.0000       0.162585         4.4242
 118   0.0000       0.191061         5.1990
 119   0.0000       0.195577         5.3219
 120   0.0000       0.196288         5.3413
 121   0.0000       0.209789         5.7086

                 SPIN DOWN ORBITALS
  NO   OCC          E(Eh)            E(eV)
   0   1.0000    -196.641023     -5350.8743
   1   1.0000     -88.679307     -2413.0866
   2   1.0000     -88.677659     -2413.0418
   3   1.0000     -88.675952     -2412.9953
   4   1.0000     -88.667832     -2412.7744
   5   1.0000     -88.615298     -2411.3448
   6   1.0000     -88.612831     -2411.2777
   7   1.0000     -88.612535     -2411.2697
   8   1.0000     -88.611482     -2411.2410
   9   1.0000     -22.002017      -598.7053
  10   1.0000     -18.861543      -513.2487
  11   1.0000     -18.518379      -503.9107
  12   1.0000     -18.502245      -503.4717
  13   1.0000     -18.501566      -503.4532
  14   1.0000     -10.024714      -272.7863
  15   1.0000     -10.017198      -272.5818
  16   1.0000     -10.014004      -272.4949
  17   1.0000     -10.009179      -272.3636
  18   1.0000     -10.004988      -272.2496
  19   1.0000     -10.003058      -272.1971
  20   1.0000      -9.992650      -271.9138
  21   1.0000      -9.992030      -271.8970
  22   1.0000      -9.991296      -271.8770
  23   1.0000      -9.990889      -271.8659
  24   1.0000      -7.730663      -210.3620
  25   1.0000      -7.730306      -210.3523
  26   1.0000      -7.729953      -210.3427
  27   1.0000      -7.729633      -210.3340
  28   1.0000      -7.669838      -208.7069
  29   1.0000      -7.667243      -208.6363
  30   1.0000      -7.666967      -208.6288
  31   1.0000      -7.665744      -208.5955
  32   1.0000      -5.695974      -154.9953
  33   1.0000      -5.695515      -154.9828
  34   1.0000      -5.695493      -154.9822
  35   1.0000      -5.694413      -154.9528
  36   1.0000      -5.692114      -154.8903
  37   1.0000      -5.691787      -154.8814
  38   1.0000      -5.691563      -154.8753
  39   1.0000      -5.689789      -154.8270
  40   1.0000      -5.685391      -154.7074
  41   1.0000      -5.685084      -154.6990
  42   1.0000      -5.684495      -154.6830
  43   1.0000      -5.684268      -154.6768
  44   1.0000      -5.634645      -153.3265
  45   1.0000      -5.632097      -153.2571
  46   1.0000      -5.631832      -153.2499
  47   1.0000      -5.630649      -153.2178
  48   1.0000      -5.628432      -153.1574
  49   1.0000      -5.627936      -153.1439
  50   1.0000      -5.625937      -153.0895
  51   1.0000      -5.625652      -153.0818
  52   1.0000      -5.625221      -153.0700
  53   1.0000      -5.624924      -153.0620
  54   1.0000      -5.624492      -153.0502
  55   1.0000      -5.623632      -153.0268
  56   1.0000      -2.366197       -64.3875
  57   1.0000      -1.432908       -38.9914
  58   1.0000      -1.378816       -37.5195
  59   1.0000      -1.378049       -37.4986
  60   1.0000      -0.673179       -18.3181
  61   1.0000      -0.644514       -17.5381
  62   1.0000      -0.626650       -17.0520
  63   1.0000      -0.593821       -16.1587
  64   1.0000      -0.592700       -16.1282
  65   1.0000      -0.577366       -15.7109
  66   1.0000      -0.576271       -15.6811
  67   1.0000      -0.497371       -13.5342
  68   1.0000      -0.491529       -13.3752
  69   1.0000      -0.486795       -13.2464
  70   1.0000      -0.475867       -12.9490
  71   1.0000      -0.427016       -11.6197
  72   1.0000      -0.422333       -11.4923
  73   1.0000      -0.411331       -11.1929
  74   1.0000      -0.405449       -11.0328
  75   1.0000      -0.375532       -10.2187
  76   1.0000      -0.371219       -10.1014
  77   1.0000      -0.305816        -8.3217
  78   1.0000      -0.293317        -7.9816
  79   1.0000      -0.277937        -7.5631
  80   1.0000      -0.277539        -7.5522
  81   1.0000      -0.258721        -7.0401
  82   1.0000      -0.253087        -6.8869
  83   1.0000      -0.242631        -6.6023
  84   1.0000      -0.238703        -6.4955
  85   1.0000      -0.204379        -5.5614
  86   1.0000      -0.194848        -5.3021
  87   1.0000      -0.192962        -5.2508
  88   1.0000      -0.191174        -5.2021
  89   1.0000      -0.185732        -5.0540
  90   1.0000      -0.184819        -5.0292
  91   1.0000      -0.177947        -4.8422
  92   1.0000      -0.149292        -4.0624
  93   1.0000      -0.148419        -4.0387
  94   1.0000      -0.143003        -3.8913
  95   1.0000      -0.141124        -3.8402
  96   1.0000      -0.136275        -3.7082
  97   1.0000      -0.096133        -2.6159
  98   1.0000      -0.094144        -2.5618
  99   1.0000      -0.089117        -2.4250
 100   1.0000      -0.083137        -2.2623
 101   1.0000      -0.081281        -2.2118
 102   1.0000      -0.079265        -2.1569
 103   1.0000      -0.070580        -1.9206
 104   1.0000      -0.045999        -1.2517
 105   1.0000      -0.038421        -1.0455
 106   1.0000      -0.036793        -1.0012
 107   1.0000      -0.033684        -0.9166
 108   1.0000      -0.030938        -0.8419
 109   1.0000      -0.012689        -0.3453
 110   1.0000      -0.006000        -0.1633
 111   1.0000      -0.002377        -0.0647
 112   1.0000       0.006796         0.1849
 113   1.0000       0.011283         0.3070
 114   1.0000       0.033090         0.9004
 115   1.0000       0.058136         1.5820
 116   0.0000       0.162641         4.4257
 117   0.0000       0.184551         5.0219
 118   0.0000       0.191989         5.2243
 119   0.0000       0.195720         5.3258
 120   0.0000       0.196552         5.3484

MULLIKEN ATOMIC CHARGES AND SPIN POPULATIONS
--------------------------------------------
   0 V :    0.446930    1.199245
   1 S :   -0.255700   -0.024377
   2 S :   -0.251341   -0.022535
   3 S :   -0.251152   -0.024230
   4 S :   -0.254185   -0.025490
   5 O :   -0.505930   -0.138782
   6 C :   -0.093738    0.009218
   7 C :   -0.134666    0.008662
   8 C :   -0.117984    0.009168
   9 C :   -0.113779    0.008607
  10 S :    0.023033    0.000066
  11 S :   -0.092079   -0.000476
  12 S :   -0.036862   -0.000173
  13 S :   -0.052023   -0.000257
  14 C :   -0.340925    0.000335
  15 C :   -0.339485    0.000290
  16 C :   -0.346193    0.000452
  17 C :   -0.336636    0.000335
  18 C :   -0.053787    0.000115
  19 H :    0.132964   -0.000220
  20 H :    0.083413   -0.000019
  21 H :    0.032357    0.000064
  22 H :    0.069629   -0.000004
  23 H :    0.105454    0.000022
  24 H :    0.146505   -0.000039
  25 C :   -0.083909    0.000137
  26 H :    0.103112    0.000033
  27 H :    0.146999   -0.000100
  28 H :    0.078512    0.000010
  29 H :    0.044454    0.000036
  30 H :    0.146797   -0.000116
  31 H :    0.100216    0.000022
Sum of atomic charges         :   -2.0000000

LOEWDIN ATOMIC CHARGES AND SPIN POPULATIONS
-------------------------------------------
   0 V :   -0.242766    1.153229
   1 S :    0.085774   -0.016485
   2 S :    0.100891   -0.014766
   3 S :    0.090912   -0.016474
   4 S :    0.080331   -0.017640
   5 O :   -0.350542   -0.124217
   6 C :   -0.541541    0.010337
   7 C :   -0.558893    0.009703
   8 C :   -0.553809    0.010146
   9 C :   -0.551554    0.009767
  10 S :    0.451216   -0.000857
  11 S :    0.255585   -0.001224
  12 S :    0.349943   -0.001035
  13 S :    0.324114   -0.001072
  14 C :   -0.230295    0.000264
  15 C :   -0.305504    0.000152
  16 C :   -0.397775    0.000135
  17 C :   -0.282492    0.000202
  18 C :   -0.190071   -0.000052
  19 H :    0.057730   -0.000088
  20 H :    0.053312   -0.000029
  21 H :    0.047803    0.000025
  22 H :    0.051176    0.000012
  23 H :    0.046707    0.000016
  24 H :    0.067830   -0.000003
  25 C :   -0.184926   -0.000040
  26 H :    0.047062    0.000013
  27 H :    0.066303   -0.000022
  28 H :    0.053423    0.000010
  29 H :    0.046861    0.000018
  30 H :    0.065517   -0.000034
  31 H :    0.047679    0.000004

  Mayer bond orders larger than 0.100000
B(  0-V ,  1-S ) :   0.7915 B(  0-V ,  2-S ) :   0.7811 B(  0-V ,  3-S ) :   0.7899
B(  0-V ,  4-S ) :   0.7939 B(  0-V ,  5-O ) :   2.1085 B(  1-S ,  8-C ) :   1.1325
B(  2-S ,  6-C ) :   1.1486 B(  3-S ,  9-C ) :   1.1416 B(  4-S ,  7-C ) :   1.1246
B(  6-C ,  7-C ) :   1.5084 B(  6-C , 10-S ) :   0.9049 B(  7-C , 11-S ) :   1.0105
B(  8-C ,  9-C ) :   1.5180 B(  8-C , 13-S ) :   0.9608 B(  9-C , 12-S ) :   0.9471
B( 10-S , 16-C ) :   1.2071 B( 11-S , 14-C ) :   0.9060 B( 12-S , 15-C ) :   1.0230
B( 13-S , 17-C ) :   0.9893 B( 14-C , 18-C ) :   0.9026 B( 14-C , 23-H ) :   0.9608
B( 14-C , 24-H ) :   0.9759 B( 15-C , 25-C ) :   0.8736 B( 15-C , 30-H ) :   0.9734
B( 15-C , 31-H ) :   0.9707 B( 16-C , 18-C ) :   0.8252 B( 16-C , 19-H ) :   0.9533
B( 16-C , 20-H ) :   0.9570 B( 17-C , 25-C ) :   0.8819 B( 17-C , 26-H ) :   0.9691
B( 17-C , 27-H ) :   0.9764 B( 18-C , 21-H ) :   0.9498 B( 18-C , 22-H ) :   0.9694
B( 25-C , 28-H ) :   0.9740 B( 25-C , 29-H ) :   0.9526

FINAL SINGLE POINT ENERGY     -4592.656421351322

DIPOLE MOMENT
-------------
                                X             Y             Z
Electronic contribution:     10.49623     -24.50310      -2.43122
Nuclear contribution   :    -11.83748      27.16547       2.70556
                        -----------------------------------------
Total Dipole Moment    :     -1.34124       2.66237       0.27434
                        -----------------------------------------
Magnitude (a.u.)       :      2.99373
Magnitude (Debye)      :      7.60946

Rotational constants in cm-1:     0.012754     0.002548     0.002431
Rotational constants in MHz :   382.360745    76.379860    72.881052

                             ****ORCA TERMINATED NORMALLY****
TOTAL RUN TIME: 0 days 0 hours 43 minutes 16 seconds 154 msec
