                         Program Version 5.0.4 -  RELEASE  -
|  1> ! nofrozencore ReducedPop printbasis
|  2> ! B3LYP TZVP
|  3>
|  4> %basis
|  5> newgto V "CP(PPP)" end
|  6> end
|  7>
|  8> %pal
|  9> nprocs 4
| 10> end
| 11>
| 12> % sym SymThresh 1e-2 end
| 13> * xyz -2 2
| 14> V -0.319644496274967 -0.8580999679250627 -0.6368741414079624
| 15> S -1.5674957614301381 -0.9893913483164432 1.4680457486846668
| 16> S -1.7579694534416388 1.05190711816734 -1.1665749731727437
| 17> S 1.5529855191809459 -1.6066608465205061 0.7532811243336042
| 18> S 1.3534928150165044 0.4115113780300611 -1.9003324713145593
| 19> O -0.7799567814114589 -2.0888197203249272 -1.5439259282527034
| 20> C -0.8912498610137745 1.8989890279788033 -2.45396901023282
| 21> C 0.4064115797110868 1.632938377840547 -2.7587830522517027
| 22> C -0.5254565889023053 -1.9496731766641133 2.522266545819577
| 23> C 0.7773060497857895 -2.20305101891321 2.2280090241338515
| 24> S -1.8535987336098565 3.1628740130396915 -3.309204912019976
| 25> S 1.3054531386866446 2.519557511456951 -4.047538466661317
| 26> S 1.8587984576544165 -3.1602755041748414 3.313667469867189
| 27> S -1.3024979131557781 -2.5180632527703843 4.0456137900548885
| 28> C 1.433414214120515 4.230338038495883 -3.361381388633113
| 29> C 1.9590751103989918 -2.0383246652509963 4.864767971806836
| 30> C -1.035790230747852 4.733068461608802 -2.7857852704938346
| 31> C -0.5386966933714759 -1.5255217738504931 5.310916846024298
| 32> C 0.21914066352022857 5.131566001143262 -3.5658746614834165
| 33> H -0.8239736024581572 4.64412274870315 -1.718112801374821
| 34> H -1.8032429419902014 5.503233276310595 -2.9119581910398864
| 35> H 0.5015789028111921 6.150950526159959 -3.2564120020869987
| 36> H -0.019835337890997812 5.177466799396431 -4.633870253188842
| 37> H 2.3006158857664794 4.668044604421087 -3.8657991074321365
| 38> H 1.6766832053298417 4.135190409540314 -2.3009664655237057
| 39> C 1.0597830213581885 -2.1338524296462125 5.7801504683361715
| 40> H -1.1979681975973835 -1.4923561669053236 6.184660605154896
| 41> H -0.5573513825993978 -0.532761582555747 4.825662768930423
| 42> H 0.9735214505783587 -3.1783201336276075 6.101964195960444
| 43> H 1.6165276641278632 -1.5998362275877034 6.606252409757611
| 44> H 2.0551110176820435 -0.9622360082058801 4.63602877471731
| 45> H 2.9105828648838528 -2.374309819652211 5.2937671951524825
| 46> *
| 47>
| 48> % eprnmr
| 49> gtensor true
| 50> Nuclei = all H {aiso,adip,aorb,fgrad,rho}
| 51> Nuclei = all V {aiso,adip,aorb,fgrad,rho}
| 52> end
| 53>
| 54>                          ****END OF INPUT****

CARTESIAN COORDINATES (ANGSTROEM)
---------------------------------
  V     -0.319995   -0.858960   -0.637613
  S     -1.567846   -0.990251    1.467307
  S     -1.758320    1.051047   -1.167314
  S      1.552635   -1.607521    0.752542
  S      1.353143    0.410651   -1.901071
  O     -0.780307   -2.089680   -1.544665
  C     -0.891600    1.898129   -2.454708
  C      0.406061    1.632078   -2.759522
  C     -0.525807   -1.950533    2.521528
  C      0.776956   -2.203911    2.227270
  S     -1.853949    3.162014   -3.309944
  S      1.305103    2.518697   -4.048277
  S      1.858448   -3.161136    3.312928
  S     -1.302848   -2.518923    4.044875
  C      1.433064    4.229478   -3.362120
  C      1.958725   -2.039185    4.864029
  C     -1.036140    4.732208   -2.786524
  C     -0.539047   -1.526382    5.310178
  C      0.218790    5.130706   -3.566614
  H     -0.824324    4.643263   -1.718852
  H     -1.803593    5.502373   -2.912697
  H      0.501229    6.150090   -3.257151
  H     -0.020186    5.176607   -4.634609
  H      2.300266    4.667184   -3.866538
  H      1.676333    4.134330   -2.301705
  C      1.059433   -2.134713    5.779411
  H     -1.198318   -1.493216    6.183922
  H     -0.557702   -0.533622    4.824924
  H      0.973171   -3.179180    6.101225
  H      1.616177   -1.600696    6.605513
  H      2.054761   -0.963096    4.635290
  H      2.910233   -2.375170    5.293028

 Total Charge           Charge          ....   -2
 Multiplicity           Mult            ....    2
 Number of Electrons    NEL             ....  233
 Basis Dimension        Dim             ....  517

ORBITAL ENERGIES
----------------
                 SPIN UP ORBITALS
  NO   OCC          E(Eh)            E(eV)
   0   1.0000    -196.640110     -5350.8494
   1   1.0000     -88.676661     -2413.0146
   2   1.0000     -88.676488     -2413.0099
   3   1.0000     -88.676441     -2413.0086
   4   1.0000     -88.675749     -2412.9898
   5   1.0000     -88.612226     -2411.2613
   6   1.0000     -88.611919     -2411.2529
   7   1.0000     -88.611877     -2411.2518
   8   1.0000     -88.611744     -2411.2481
   9   1.0000     -22.015914      -599.0835
  10   1.0000     -18.857144      -513.1290
  11   1.0000     -18.522738      -504.0293
  12   1.0000     -18.516964      -503.8722
  13   1.0000     -18.516926      -503.8712
  14   1.0000     -10.025769      -272.8150
  15   1.0000     -10.015453      -272.5343
  16   1.0000     -10.015219      -272.5280
  17   1.0000     -10.004620      -272.2395
  18   1.0000     -10.003732      -272.2154
  19   1.0000     -10.002398      -272.1791
  20   1.0000      -9.992730      -271.9160
  21   1.0000      -9.991779      -271.8901
  22   1.0000      -9.991055      -271.8704
  23   1.0000      -9.990245      -271.8484
  24   1.0000      -7.731317      -210.3798
  25   1.0000      -7.730122      -210.3473
  26   1.0000      -7.730094      -210.3466
  27   1.0000      -7.728735      -210.3096
  28   1.0000      -7.666700      -208.6215
  29   1.0000      -7.666369      -208.6125
  30   1.0000      -7.666308      -208.6109
  31   1.0000      -7.666143      -208.6064
  32   1.0000      -5.696413      -155.0073
  33   1.0000      -5.695364      -154.9787
  34   1.0000      -5.695338      -154.9780
  35   1.0000      -5.693908      -154.9391
  36   1.0000      -5.692432      -154.8989
  37   1.0000      -5.691475      -154.8729
  38   1.0000      -5.691448      -154.8722
  39   1.0000      -5.690300      -154.8409
  40   1.0000      -5.686236      -154.7303
  41   1.0000      -5.684875      -154.6933
  42   1.0000      -5.684846      -154.6925
  43   1.0000      -5.683501      -154.6559
  44   1.0000      -5.631530      -153.2417
  45   1.0000      -5.631205      -153.2329
  46   1.0000      -5.631165      -153.2318
  47   1.0000      -5.631005      -153.2274
  48   1.0000      -5.625135      -153.0677
  49   1.0000      -5.624816      -153.0590
  50   1.0000      -5.624738      -153.0569
  51   1.0000      -5.624681      -153.0554
  52   1.0000      -5.624580      -153.0526
  53   1.0000      -5.624342      -153.0461
  54   1.0000      -5.624293      -153.0448
  55   1.0000      -5.624123      -153.0402
  56   1.0000      -2.409598       -65.5685
  57   1.0000      -1.450952       -39.4824
  58   1.0000      -1.439380       -39.1675
  59   1.0000      -1.438300       -39.1381
  60   1.0000      -0.667351       -18.1595
  61   1.0000      -0.643724       -17.5166
  62   1.0000      -0.618267       -16.8239
  63   1.0000      -0.611407       -16.6372
  64   1.0000      -0.593615       -16.1531
  65   1.0000      -0.575730       -15.6664
  66   1.0000      -0.572690       -15.5837
  67   1.0000      -0.503305       -13.6956
  68   1.0000      -0.490557       -13.3487
  69   1.0000      -0.486979       -13.2514
  70   1.0000      -0.469487       -12.7754
  71   1.0000      -0.422455       -11.4956
  72   1.0000      -0.419763       -11.4223
  73   1.0000      -0.410385       -11.1671
  74   1.0000      -0.400067       -10.8864
  75   1.0000      -0.375791       -10.2258
  76   1.0000      -0.372874       -10.1464
  77   1.0000      -0.305374        -8.3096
  78   1.0000      -0.292787        -7.9671
  79   1.0000      -0.290456        -7.9037
  80   1.0000      -0.277634        -7.5548
  81   1.0000      -0.259743        -7.0680
  82   1.0000      -0.255476        -6.9519
  83   1.0000      -0.243354        -6.6220
  84   1.0000      -0.239818        -6.5258
  85   1.0000      -0.215861        -5.8739
  86   1.0000      -0.194828        -5.3015
  87   1.0000      -0.192289        -5.2325
  88   1.0000      -0.190964        -5.1964
  89   1.0000      -0.184622        -5.0238
  90   1.0000      -0.181344        -4.9346
  91   1.0000      -0.156877        -4.2688
  92   1.0000      -0.149006        -4.0547
  93   1.0000      -0.147758        -4.0207
  94   1.0000      -0.143324        -3.9001
  95   1.0000      -0.142201        -3.8695
  96   1.0000      -0.134247        -3.6530
  97   1.0000      -0.097364        -2.6494
  98   1.0000      -0.095789        -2.6065
  99   1.0000      -0.088541        -2.4093
 100   1.0000      -0.083352        -2.2681
 101   1.0000      -0.080181        -2.1818
 102   1.0000      -0.078991        -2.1495
 103   1.0000      -0.068661        -1.8684
 104   1.0000      -0.050141        -1.3644
 105   1.0000      -0.038488        -1.0473
 106   1.0000      -0.037857        -1.0301
 107   1.0000      -0.035612        -0.9691
 108   1.0000      -0.031444        -0.8556
 109   1.0000      -0.012967        -0.3528
 110   1.0000      -0.004152        -0.1130
 111   1.0000      -0.003009        -0.0819
 112   1.0000       0.006294         0.1713
 113   1.0000       0.010708         0.2914
 114   1.0000       0.016286         0.4432
 115   1.0000       0.033682         0.9165
 116   1.0000       0.059831         1.6281
 117   0.0000       0.187329         5.0975
 118   0.0000       0.191479         5.2104
 119   0.0000       0.194842         5.3019
 120   0.0000       0.196541         5.3481
 121   0.0000       0.211421         5.7531

                 SPIN DOWN ORBITALS
  NO   OCC          E(Eh)            E(eV)
   0   1.0000    -196.640251     -5350.8533
   1   1.0000     -88.676674     -2413.0150
   2   1.0000     -88.676501     -2413.0103
   3   1.0000     -88.676454     -2413.0090
   4   1.0000     -88.675762     -2412.9902
   5   1.0000     -88.612385     -2411.2656
   6   1.0000     -88.612079     -2411.2573
   7   1.0000     -88.612036     -2411.2561
   8   1.0000     -88.611904     -2411.2525
   9   1.0000     -22.001244      -598.6843
  10   1.0000     -18.860720      -513.2263
  11   1.0000     -18.517608      -503.8897
  12   1.0000     -18.501468      -503.4505
  13   1.0000     -18.500793      -503.4322
  14   1.0000     -10.025765      -272.8149
  15   1.0000     -10.015449      -272.5342
  16   1.0000     -10.015215      -272.5279
  17   1.0000     -10.004620      -272.2395
  18   1.0000     -10.003730      -272.2153
  19   1.0000     -10.002397      -272.1791
  20   1.0000      -9.992474      -271.9090
  21   1.0000      -9.991525      -271.8832
  22   1.0000      -9.990802      -271.8636
  23   1.0000      -9.989994      -271.8416
  24   1.0000      -7.731331      -210.3802
  25   1.0000      -7.730136      -210.3477
  26   1.0000      -7.730108      -210.3469
  27   1.0000      -7.728749      -210.3100
  28   1.0000      -7.666847      -208.6255
  29   1.0000      -7.666518      -208.6166
  30   1.0000      -7.666457      -208.6149
  31   1.0000      -7.666292      -208.6104
  32   1.0000      -5.696430      -155.0077
  33   1.0000      -5.695381      -154.9792
  34   1.0000      -5.695355      -154.9785
  35   1.0000      -5.693925      -154.9396
  36   1.0000      -5.692451      -154.8995
  37   1.0000      -5.691495      -154.8735
  38   1.0000      -5.691468      -154.8727
  39   1.0000      -5.690320      -154.8415
  40   1.0000      -5.686251      -154.7308
  41   1.0000      -5.684892      -154.6938
  42   1.0000      -5.684862      -154.6930
  43   1.0000      -5.683518      -154.6564
  44   1.0000      -5.631700      -153.2464
  45   1.0000      -5.631377      -153.2376
  46   1.0000      -5.631337      -153.2365
  47   1.0000      -5.631177      -153.2321
  48   1.0000      -5.625524      -153.0783
  49   1.0000      -5.625207      -153.0697
  50   1.0000      -5.625129      -153.0675
  51   1.0000      -5.624974      -153.0633
  52   1.0000      -5.624815      -153.0590
  53   1.0000      -5.624477      -153.0498
  54   1.0000      -5.624428      -153.0485
  55   1.0000      -5.624258      -153.0438
  56   1.0000      -2.365414       -64.3662
  57   1.0000      -1.432127       -38.9702
  58   1.0000      -1.377960       -37.4962
  59   1.0000      -1.377324       -37.4789
  60   1.0000      -0.667339       -18.1592
  61   1.0000      -0.643675       -17.5153
  62   1.0000      -0.625879       -17.0310
  63   1.0000      -0.611291       -16.6341
  64   1.0000      -0.593418       -16.1477
  65   1.0000      -0.575725       -15.6663
  66   1.0000      -0.572617       -15.5817
  67   1.0000      -0.503291       -13.6952
  68   1.0000      -0.490588       -13.3496
  69   1.0000      -0.486991       -13.2517
  70   1.0000      -0.469579       -12.7779
  71   1.0000      -0.422688       -11.5019
  72   1.0000      -0.420027       -11.4295
  73   1.0000      -0.410433       -11.1685
  74   1.0000      -0.400137       -10.8883
  75   1.0000      -0.375751       -10.2247
  76   1.0000      -0.372897       -10.1470
  77   1.0000      -0.305359        -8.3093
  78   1.0000      -0.292770        -7.9667
  79   1.0000      -0.290437        -7.9032
  80   1.0000      -0.277615        -7.5543
  81   1.0000      -0.259563        -7.0631
  82   1.0000      -0.255445        -6.9510
  83   1.0000      -0.243238        -6.6189
  84   1.0000      -0.239741        -6.5237
  85   1.0000      -0.215826        -5.8729
  86   1.0000      -0.194390        -5.2896
  87   1.0000      -0.192239        -5.2311
  88   1.0000      -0.190845        -5.1932
  89   1.0000      -0.184569        -5.0224
  90   1.0000      -0.179275        -4.8783
  91   1.0000      -0.156676        -4.2634
  92   1.0000      -0.148475        -4.0402
  93   1.0000      -0.147414        -4.0113
  94   1.0000      -0.143003        -3.8913
  95   1.0000      -0.142096        -3.8666
  96   1.0000      -0.134072        -3.6483
  97   1.0000      -0.096187        -2.6174
  98   1.0000      -0.094981        -2.5846
  99   1.0000      -0.088708        -2.4139
 100   1.0000      -0.083148        -2.2626
 101   1.0000      -0.082044        -2.2325
 102   1.0000      -0.078895        -2.1468
 103   1.0000      -0.069771        -1.8986
 104   1.0000      -0.046001        -1.2518
 105   1.0000      -0.038545        -1.0489
 106   1.0000      -0.037220        -1.0128
 107   1.0000      -0.034656        -0.9430
 108   1.0000      -0.031308        -0.8519
 109   1.0000      -0.012064        -0.3283
 110   1.0000      -0.005488        -0.1493
 111   1.0000      -0.002004        -0.0545
 112   1.0000       0.007122         0.1938
 113   1.0000       0.011603         0.3157
 114   1.0000       0.033941         0.9236
 115   1.0000       0.059040         1.6066
 116   0.0000       0.185263         5.0413
 117   0.0000       0.188496         5.1292
 118   0.0000       0.191643         5.2149
 119   0.0000       0.195375         5.3164
 120   0.0000       0.196725         5.3532

MULLIKEN ATOMIC CHARGES AND SPIN POPULATIONS
--------------------------------------------
   0 V :    0.447993    1.199213
   1 S :   -0.257220   -0.023992
   2 S :   -0.254125   -0.024098
   3 S :   -0.251715   -0.024300
   4 S :   -0.253936   -0.024004
   5 O :   -0.506583   -0.138762
   6 C :   -0.117118    0.008869
   7 C :   -0.115395    0.008813
   8 C :   -0.148780    0.008871
   9 C :   -0.084345    0.008930
  10 S :   -0.044795   -0.000160
  11 S :   -0.044867   -0.000205
  12 S :   -0.067197   -0.000309
  13 S :   -0.027647   -0.000092
  14 C :   -0.339456    0.000285
  15 C :   -0.358100    0.000187
  16 C :   -0.337945    0.000273
  17 C :   -0.321801    0.000360
  18 C :   -0.082872    0.000134
  19 H :    0.146902   -0.000102
  20 H :    0.101755    0.000021
  21 H :    0.044340    0.000038
  22 H :    0.078380    0.000018
  23 H :    0.101748    0.000021
  24 H :    0.147147   -0.000103
  25 C :   -0.044272    0.000145
  26 H :    0.104953    0.000017
  27 H :    0.152845   -0.000144
  28 H :    0.071884   -0.000000
  29 H :    0.034432    0.000065
  30 H :    0.130365   -0.000055
  31 H :    0.095425    0.000065
Sum of atomic charges         :   -2.0000000

LOEWDIN ATOMIC CHARGES AND SPIN POPULATIONS
-------------------------------------------
   0 V :   -0.242667    1.153216
   1 S :    0.087087   -0.016217
   2 S :    0.087840   -0.016314
   3 S :    0.088452   -0.016451
   4 S :    0.087897   -0.016291
   5 O :   -0.350917   -0.124215
   6 C :   -0.553406    0.009991
   7 C :   -0.552648    0.009927
   8 C :   -0.561255    0.009853
   9 C :   -0.544842    0.010081
  10 S :    0.336930   -0.001021
  11 S :    0.336424   -0.001051
  12 S :    0.307318   -0.001120
  13 S :    0.361481   -0.000963
  14 C :   -0.293546    0.000163
  15 C :   -0.284253    0.000181
  16 C :   -0.293862    0.000157
  17 C :   -0.314286    0.000148
  18 C :   -0.184820   -0.000036
  19 H :    0.065841   -0.000027
  20 H :    0.047238    0.000004
  21 H :    0.046739    0.000017
  22 H :    0.053377    0.000012
  23 H :    0.047289    0.000005
  24 H :    0.066008   -0.000027
  25 C :   -0.181506   -0.000043
  26 H :    0.045386   -0.000005
  27 H :    0.069086   -0.000043
  28 H :    0.049560    0.000009
  29 H :    0.056576    0.000032
  30 H :    0.069075   -0.000007
  31 H :    0.048405    0.000036

  Mayer bond orders larger than 0.100000
B(  0-V ,  1-S ) :   0.7851 B(  0-V ,  2-S ) :   0.7904 B(  0-V ,  3-S ) :   0.7926
B(  0-V ,  4-S ) :   0.7882 B(  0-V ,  5-O ) :   2.1080 B(  1-S ,  8-C ) :   1.1295
B(  2-S ,  6-C ) :   1.1366 B(  3-S ,  9-C ) :   1.1409 B(  4-S ,  7-C ) :   1.1381
B(  6-C ,  7-C ) :   1.5177 B(  6-C , 10-S ) :   0.9536 B(  7-C , 11-S ) :   0.9535
B(  8-C ,  9-C ) :   1.5206 B(  8-C , 13-S ) :   0.9639 B(  9-C , 12-S ) :   0.9419
B( 10-S , 16-C ) :   1.0051 B( 11-S , 14-C ) :   1.0051 B( 12-S , 15-C ) :   0.9974
B( 13-S , 17-C ) :   0.9972 B( 14-C , 18-C ) :   0.8781 B( 14-C , 23-H ) :   0.9703
B( 14-C , 24-H ) :   0.9752 B( 15-C , 25-C ) :   0.8702 B( 15-C , 30-H ) :   0.9713
B( 15-C , 31-H ) :   0.9877 B( 16-C , 18-C ) :   0.8778 B( 16-C , 19-H ) :   0.9752
B( 16-C , 20-H ) :   0.9699 B( 17-C , 25-C ) :   0.8087 B( 17-C , 26-H ) :   0.9538
B( 17-C , 27-H ) :   0.9720 B( 18-C , 21-H ) :   0.9525 B( 18-C , 22-H ) :   0.9737
B( 25-C , 28-H ) :   0.9734 B( 25-C , 29-H ) :   0.9452

FINAL SINGLE POINT ENERGY     -4592.645803820990

DIPOLE MOMENT
-------------
                                X             Y             Z
Electronic contribution:     -7.76732     -20.50013     -15.24096
Nuclear contribution   :      8.63640      22.85783      16.97771
                        -----------------------------------------
Total Dipole Moment    :      0.86908       2.35770       1.73675
                        -----------------------------------------
Magnitude (a.u.)       :      3.05456
Magnitude (Debye)      :      7.76407

Rotational constants in cm-1:     0.012763     0.002548     0.002431
Rotational constants in MHz :   382.632100    76.397367    72.874767

                             ****ORCA TERMINATED NORMALLY****
TOTAL RUN TIME: 0 days 0 hours 43 minutes 1 seconds 150 msec
