                         Program Version 5.0.4 -  RELEASE  -
|  1> ! nofrozencore ReducedPop printbasis
|  2> ! B3LYP TZVP
|  3>
|  4> %basis
|  5> newgto V "CP(PPP)" end
|  6> end
|  7>
|  8> %pal
|  9> nprocs 4
| 10> end
| 11>
| 12> % sym SymThresh 1e-2 end
| 13> * xyz -2 2
| 14> V 0.8419123969936724 -0.6910110541873112 0.24104744238491643
| 15> S -0.5125454759502737 -1.7498710690333588 -1.5057938919652845
| 16> S 1.5985484533636123 0.8363185534777754 -1.5173881185793057
| 17> S -1.054038242236865 -1.282150261921639 1.6751663264811922
| 18> S 1.0819842265511586 1.28620648643793 1.669379875532674
| 19> O 2.043305889882382 -1.6848734467643693 0.5827964476953504
| 20> C 2.2689160280307723 2.2061497367755334 -0.6304353762474867
| 21> C 2.0521336599780264 2.394534780665258 0.6986622898128788
| 22> C -1.7389035771045869 -2.6538781009785573 -0.607279082028453
| 23> C -1.9647131012009154 -2.4591979794693866 0.7185971921696956
| 24> S 3.200838795081049 3.379548833099678 -1.628935689266986
| 25> S 2.67296526244932 3.8374759982617825 1.5788354689992172
| 26> S -3.226064406373718 -3.365948811174299 1.6418938678635475
| 27> S -2.6740997509104116 -3.842685677702594 -1.5967504726848334
| 28> C 1.7410055782798497 5.242790359975431 1.0178843741762351
| 29> C -4.797025501077323 -2.7161833221108256 0.8286423506084273
| 30> C 2.206337915637147 4.842544215860738 -1.7973985232278458
| 31> C -4.391193069524936 -3.0677966405115926 -1.55407386518658
| 32> C 2.33081361081969 5.836910921660463 -0.44381950935542774
| 33> H 1.1806444055150553 4.3998945158296445 -1.7231391741409678
| 34> H 2.2812630909337828 5.333617037378259 -2.806532600913556
| 35> H 1.6874777124813036 6.705993563010272 -0.6737486036509986
| 36> H 3.3558529650815863 6.217244208933128 -0.3283008171808578
| 37> H 1.5135330727725635 5.993163465373922 1.8240832301205125
| 38> H 0.7735652838051409 4.749118930769667 0.7468312692989296
| 39> C -5.240006109776716 -3.3401012915177772 -0.40655348670743013
| 40> H -4.865864347107501 -3.5960716016224263 -2.3960668162060546
| 41> H -4.319242429021522 -2.003692739102696 -1.814849904447308
| 42> H -5.270082358420451 -4.425323442394634 -0.25151193511648295
| 43> H -6.272413430273624 -3.01976942919487 -0.6297747403732331
| 44> H -4.7609011311656335 -1.6196433689605039 0.787322631071958
| 45> H -5.544452139562967 -3.0068733565213632 1.5836649371039904
| 46> *
| 47>
| 48> % eprnmr
| 49> gtensor true
| 50> Nuclei = all H {aiso,adip,aorb,fgrad,rho}
| 51> Nuclei = all V {aiso,adip,aorb,fgrad,rho}
| 52> end
| 53>
| 54>                          ****END OF INPUT****

CARTESIAN COORDINATES (ANGSTROEM)
---------------------------------
  V      0.842858   -0.691683    0.241297
  S     -0.511599   -1.750543   -1.505545
  S      1.599495    0.835647   -1.517139
  S     -1.053092   -1.282822    1.675416
  S      1.082930    1.285535    1.669629
  O      2.044252   -1.685545    0.583046
  C      2.269862    2.205478   -0.630186
  C      2.053080    2.393863    0.698912
  C     -1.737958   -2.654550   -0.607030
  C     -1.963767   -2.459870    0.718846
  S      3.201785    3.378877   -1.628686
  S      2.673911    3.836804    1.579085
  S     -3.225118   -3.366621    1.642143
  S     -2.673154   -3.843357   -1.596501
  C      1.741952    5.242119    1.018134
  C     -4.796079   -2.716855    0.828892
  C      2.207284    4.841873   -1.797149
  C     -4.390247   -3.068468   -1.553825
  C      2.331760    5.836239   -0.443570
  H      1.181590    4.399223   -1.722890
  H      2.282209    5.332945   -2.806283
  H      1.688424    6.705322   -0.673499
  H      3.356799    6.216573   -0.328052
  H      1.514479    5.992492    1.824332
  H      0.774511    4.748447    0.747081
  C     -5.239060   -3.340773   -0.406304
  H     -4.864918   -3.596743   -2.395818
  H     -4.318296   -2.004364   -1.814601
  H     -5.269136   -4.425995   -0.251263
  H     -6.271467   -3.020441   -0.629526
  H     -4.759955   -1.620315    0.787572
  H     -5.543506   -3.007545    1.583914

 Total Charge           Charge          ....   -2
 Multiplicity           Mult            ....    2
 Number of Electrons    NEL             ....  233
 Basis Dimension        Dim             ....  517

ORBITAL ENERGIES
----------------
                 SPIN UP ORBITALS
  NO   OCC          E(Eh)            E(eV)
   0   1.0000    -196.641080     -5350.8758
   1   1.0000     -88.680204     -2413.1110
   2   1.0000     -88.680189     -2413.1106
   3   1.0000     -88.672113     -2412.8909
   4   1.0000     -88.672065     -2412.8896
   5   1.0000     -88.614062     -2411.3112
   6   1.0000     -88.614022     -2411.3101
   7   1.0000     -88.612426     -2411.2667
   8   1.0000     -88.612369     -2411.2651
   9   1.0000     -22.016865      -599.1094
  10   1.0000     -18.858282      -513.1599
  11   1.0000     -18.523699      -504.0555
  12   1.0000     -18.517912      -503.8980
  13   1.0000     -18.517874      -503.8970
  14   1.0000     -10.028939      -272.9013
  15   1.0000     -10.028933      -272.9011
  16   1.0000     -10.018158      -272.6079
  17   1.0000     -10.012405      -272.4514
  18   1.0000     -10.012362      -272.4502
  19   1.0000      -9.997936      -272.0577
  20   1.0000      -9.994597      -271.9668
  21   1.0000      -9.993882      -271.9474
  22   1.0000      -9.991831      -271.8916
  23   1.0000      -9.991116      -271.8721
  24   1.0000      -7.733119      -210.4289
  25   1.0000      -7.733106      -210.4285
  26   1.0000      -7.727188      -210.2675
  27   1.0000      -7.727121      -210.2657
  28   1.0000      -7.668543      -208.6717
  29   1.0000      -7.668495      -208.6703
  30   1.0000      -7.666851      -208.6256
  31   1.0000      -7.666783      -208.6238
  32   1.0000      -5.698411      -155.0616
  33   1.0000      -5.698393      -155.0612
  34   1.0000      -5.694578      -154.9574
  35   1.0000      -5.694575      -154.9573
  36   1.0000      -5.692338      -154.8964
  37   1.0000      -5.692270      -154.8945
  38   1.0000      -5.688296      -154.7864
  39   1.0000      -5.688235      -154.7847
  40   1.0000      -5.687867      -154.7747
  41   1.0000      -5.687859      -154.7745
  42   1.0000      -5.681932      -154.6132
  43   1.0000      -5.681869      -154.6115
  44   1.0000      -5.633368      -153.2917
  45   1.0000      -5.633314      -153.2903
  46   1.0000      -5.631684      -153.2459
  47   1.0000      -5.631632      -153.2445
  48   1.0000      -5.626989      -153.1182
  49   1.0000      -5.626935      -153.1167
  50   1.0000      -5.626518      -153.1053
  51   1.0000      -5.626494      -153.1047
  52   1.0000      -5.625306      -153.0724
  53   1.0000      -5.625235      -153.0704
  54   1.0000      -5.624826      -153.0593
  55   1.0000      -5.624765      -153.0576
  56   1.0000      -2.410593       -65.5956
  57   1.0000      -1.452006       -39.5111
  58   1.0000      -1.440361       -39.1942
  59   1.0000      -1.439311       -39.1656
  60   1.0000      -0.657348       -17.8873
  61   1.0000      -0.635371       -17.2893
  62   1.0000      -0.619278       -16.8514
  63   1.0000      -0.600053       -16.3283
  64   1.0000      -0.584259       -15.8985
  65   1.0000      -0.577558       -15.7162
  66   1.0000      -0.572839       -15.5878
  67   1.0000      -0.491061       -13.3625
  68   1.0000      -0.490510       -13.3475
  69   1.0000      -0.488143       -13.2831
  70   1.0000      -0.483370       -13.1532
  71   1.0000      -0.425562       -11.5801
  72   1.0000      -0.416776       -11.3411
  73   1.0000      -0.413675       -11.2567
  74   1.0000      -0.405280       -11.0282
  75   1.0000      -0.376092       -10.2340
  76   1.0000      -0.372830       -10.1452
  77   1.0000      -0.300044        -8.1646
  78   1.0000      -0.289962        -7.8903
  79   1.0000      -0.278079        -7.5669
  80   1.0000      -0.263148        -7.1606
  81   1.0000      -0.261885        -7.1262
  82   1.0000      -0.257437        -7.0052
  83   1.0000      -0.248158        -6.7527
  84   1.0000      -0.232143        -6.3169
  85   1.0000      -0.199348        -5.4245
  86   1.0000      -0.196340        -5.3427
  87   1.0000      -0.192459        -5.2371
  88   1.0000      -0.186854        -5.0846
  89   1.0000      -0.182488        -4.9658
  90   1.0000      -0.180299        -4.9062
  91   1.0000      -0.176512        -4.8031
  92   1.0000      -0.151114        -4.1120
  93   1.0000      -0.149864        -4.0780
  94   1.0000      -0.144667        -3.9366
  95   1.0000      -0.141959        -3.8629
  96   1.0000      -0.135486        -3.6868
  97   1.0000      -0.098142        -2.6706
  98   1.0000      -0.094416        -2.5692
  99   1.0000      -0.090326        -2.4579
 100   1.0000      -0.083557        -2.2737
 101   1.0000      -0.081691        -2.2229
 102   1.0000      -0.079517        -2.1638
 103   1.0000      -0.070553        -1.9198
 104   1.0000      -0.050965        -1.3868
 105   1.0000      -0.039597        -1.0775
 106   1.0000      -0.039073        -1.0632
 107   1.0000      -0.033517        -0.9120
 108   1.0000      -0.031482        -0.8567
 109   1.0000      -0.012949        -0.3524
 110   1.0000      -0.005758        -0.1567
 111   1.0000      -0.003316        -0.0902
 112   1.0000       0.005154         0.1403
 113   1.0000       0.010818         0.2944
 114   1.0000       0.015335         0.4173
 115   1.0000       0.032093         0.8733
 116   1.0000       0.058433         1.5900
 117   0.0000       0.186247         5.0681
 118   0.0000       0.191479         5.2104
 119   0.0000       0.194380         5.2893
 120   0.0000       0.202030         5.4975
 121   0.0000       0.209615         5.7039

                 SPIN DOWN ORBITALS
  NO   OCC          E(Eh)            E(eV)
   0   1.0000    -196.641222     -5350.8797
   1   1.0000     -88.680217     -2413.1114
   2   1.0000     -88.680202     -2413.1110
   3   1.0000     -88.672126     -2412.8912
   4   1.0000     -88.672079     -2412.8899
   5   1.0000     -88.614219     -2411.3155
   6   1.0000     -88.614179     -2411.3144
   7   1.0000     -88.612588     -2411.2711
   8   1.0000     -88.612530     -2411.2695
   9   1.0000     -22.002200      -598.7103
  10   1.0000     -18.861853      -513.2571
  11   1.0000     -18.518573      -503.9160
  12   1.0000     -18.502416      -503.4763
  13   1.0000     -18.501750      -503.4582
  14   1.0000     -10.028936      -272.9012
  15   1.0000     -10.028930      -272.9011
  16   1.0000     -10.018155      -272.6079
  17   1.0000     -10.012400      -272.4513
  18   1.0000     -10.012358      -272.4501
  19   1.0000      -9.997936      -272.0577
  20   1.0000      -9.994342      -271.9599
  21   1.0000      -9.993629      -271.9405
  22   1.0000      -9.991578      -271.8847
  23   1.0000      -9.990864      -271.8652
  24   1.0000      -7.733133      -210.4292
  25   1.0000      -7.733120      -210.4289
  26   1.0000      -7.727202      -210.2679
  27   1.0000      -7.727135      -210.2660
  28   1.0000      -7.668690      -208.6757
  29   1.0000      -7.668641      -208.6743
  30   1.0000      -7.667001      -208.6297
  31   1.0000      -7.666933      -208.6278
  32   1.0000      -5.698427      -155.0621
  33   1.0000      -5.698410      -155.0616
  34   1.0000      -5.694599      -154.9579
  35   1.0000      -5.694595      -154.9578
  36   1.0000      -5.692355      -154.8969
  37   1.0000      -5.692287      -154.8950
  38   1.0000      -5.688316      -154.7869
  39   1.0000      -5.688255      -154.7853
  40   1.0000      -5.687884      -154.7752
  41   1.0000      -5.687876      -154.7750
  42   1.0000      -5.681950      -154.6137
  43   1.0000      -5.681886      -154.6120
  44   1.0000      -5.633538      -153.2964
  45   1.0000      -5.633484      -153.2949
  46   1.0000      -5.631857      -153.2506
  47   1.0000      -5.631804      -153.2492
  48   1.0000      -5.627363      -153.1283
  49   1.0000      -5.627312      -153.1269
  50   1.0000      -5.626664      -153.1093
  51   1.0000      -5.626636      -153.1086
  52   1.0000      -5.625703      -153.0832
  53   1.0000      -5.625632      -153.0812
  54   1.0000      -5.624961      -153.0630
  55   1.0000      -5.624900      -153.0613
  56   1.0000      -2.366423       -64.3936
  57   1.0000      -1.433196       -38.9992
  58   1.0000      -1.378969       -37.5236
  59   1.0000      -1.378331       -37.5063
  60   1.0000      -0.657324       -17.8867
  61   1.0000      -0.635280       -17.2868
  62   1.0000      -0.626909       -17.0591
  63   1.0000      -0.599837       -16.3224
  64   1.0000      -0.584257       -15.8984
  65   1.0000      -0.577407       -15.7120
  66   1.0000      -0.572834       -15.5876
  67   1.0000      -0.491091       -13.3633
  68   1.0000      -0.490514       -13.3476
  69   1.0000      -0.488178       -13.2840
  70   1.0000      -0.483408       -13.1542
  71   1.0000      -0.425850       -11.5880
  72   1.0000      -0.416816       -11.3421
  73   1.0000      -0.413915       -11.2632
  74   1.0000      -0.405352       -11.0302
  75   1.0000      -0.376052       -10.2329
  76   1.0000      -0.372847       -10.1457
  77   1.0000      -0.300024        -8.1641
  78   1.0000      -0.289950        -7.8899
  79   1.0000      -0.278064        -7.5665
  80   1.0000      -0.263107        -7.1595
  81   1.0000      -0.261672        -7.1204
  82   1.0000      -0.257413        -7.0046
  83   1.0000      -0.248038        -6.7495
  84   1.0000      -0.232116        -6.3162
  85   1.0000      -0.199194        -5.4204
  86   1.0000      -0.196337        -5.3426
  87   1.0000      -0.192023        -5.2252
  88   1.0000      -0.186023        -5.0619
  89   1.0000      -0.182167        -4.9570
  90   1.0000      -0.180191        -4.9033
  91   1.0000      -0.175537        -4.7766
  92   1.0000      -0.150442        -4.0937
  93   1.0000      -0.149621        -4.0714
  94   1.0000      -0.144469        -3.9312
  95   1.0000      -0.141635        -3.8541
  96   1.0000      -0.135238        -3.6800
  97   1.0000      -0.096648        -2.6299
  98   1.0000      -0.093931        -2.5560
  99   1.0000      -0.090413        -2.4603
 100   1.0000      -0.083610        -2.2751
 101   1.0000      -0.083303        -2.2668
 102   1.0000      -0.079408        -2.1608
 103   1.0000      -0.071851        -1.9552
 104   1.0000      -0.046691        -1.2705
 105   1.0000      -0.039664        -1.0793
 106   1.0000      -0.038303        -1.0423
 107   1.0000      -0.032697        -0.8897
 108   1.0000      -0.031249        -0.8503
 109   1.0000      -0.012045        -0.3278
 110   1.0000      -0.007039        -0.1915
 111   1.0000      -0.002610        -0.0710
 112   1.0000       0.006123         0.1666
 113   1.0000       0.011731         0.3192
 114   1.0000       0.032326         0.8796
 115   1.0000       0.057648         1.5687
 116   0.0000       0.183906         5.0043
 117   0.0000       0.187346         5.0979
 118   0.0000       0.191640         5.2148
 119   0.0000       0.195073         5.3082
 120   0.0000       0.202332         5.5057

MULLIKEN ATOMIC CHARGES AND SPIN POPULATIONS
--------------------------------------------
   0 V :    0.446814    1.198944
   1 S :   -0.255631   -0.024440
   2 S :   -0.248569   -0.023670
   3 S :   -0.255888   -0.024389
   4 S :   -0.248985   -0.023611
   5 O :   -0.505512   -0.138648
   6 C :   -0.128690    0.008778
   7 C :   -0.127123    0.008831
   8 C :   -0.110211    0.008897
   9 C :   -0.110169    0.008835
  10 S :   -0.030512   -0.000113
  11 S :   -0.030489   -0.000143
  12 S :   -0.046611   -0.000233
  13 S :   -0.046653   -0.000260
  14 C :   -0.352218    0.000320
  15 C :   -0.329507    0.000264
  16 C :   -0.352485    0.000303
  17 C :   -0.329092    0.000285
  18 C :   -0.116292    0.000141
  19 H :    0.152687   -0.000120
  20 H :    0.116854    0.000009
  21 H :    0.038139    0.000024
  22 H :    0.082340    0.000029
  23 H :    0.116803    0.000011
  24 H :    0.152891   -0.000123
  25 C :   -0.071400    0.000151
  26 H :    0.088171    0.000031
  27 H :    0.142034   -0.000095
  28 H :    0.077300    0.000005
  29 H :    0.051559    0.000051
  30 H :    0.142209   -0.000092
  31 H :    0.088235    0.000029
Sum of atomic charges         :   -2.0000000

LOEWDIN ATOMIC CHARGES AND SPIN POPULATIONS
-------------------------------------------
   0 V :   -0.243353    1.153004
   1 S :    0.086321   -0.016618
   2 S :    0.094124   -0.015959
   3 S :    0.086142   -0.016562
   4 S :    0.093791   -0.015934
   5 O :   -0.349924   -0.124102
   6 C :   -0.555705    0.009963
   7 C :   -0.555237    0.009938
   8 C :   -0.552334    0.009935
   9 C :   -0.552691    0.009950
  10 S :    0.354600   -0.001017
  11 S :    0.354668   -0.001033
  12 S :    0.329003   -0.001074
  13 S :    0.328989   -0.001087
  14 C :   -0.327355    0.000159
  15 C :   -0.282276    0.000171
  16 C :   -0.327495    0.000151
  17 C :   -0.282342    0.000182
  18 C :   -0.186721    0.000024
  19 H :    0.072667   -0.000032
  20 H :    0.057929   -0.000004
  21 H :    0.037580    0.000014
  22 H :    0.048294    0.000012
  23 H :    0.057883   -0.000003
  24 H :    0.072760   -0.000033
  25 C :   -0.192875   -0.000038
  26 H :    0.045596    0.000009
  27 H :    0.066372   -0.000027
  28 H :    0.056986    0.000010
  29 H :    0.052577    0.000022
  30 H :    0.066433   -0.000027
  31 H :    0.045589    0.000008

  Mayer bond orders larger than 0.100000
B(  0-V ,  1-S ) :   0.7905 B(  0-V ,  2-S ) :   0.7876 B(  0-V ,  3-S ) :   0.7925
B(  0-V ,  4-S ) :   0.7850 B(  0-V ,  5-O ) :   2.1093 B(  1-S ,  8-C ) :   1.1346
B(  2-S ,  6-C ) :   1.1417 B(  3-S ,  9-C ) :   1.1336 B(  4-S ,  7-C ) :   1.1427
B(  6-C ,  7-C ) :   1.4734 B(  6-C , 10-S ) :   0.9631 B(  7-C , 11-S ) :   0.9630
B(  8-C ,  9-C ) :   1.5398 B(  8-C , 13-S ) :   0.9484 B(  9-C , 12-S ) :   0.9483
B( 10-S , 16-C ) :   1.0135 B( 11-S , 14-C ) :   1.0131 B( 12-S , 15-C ) :   1.0089
B( 13-S , 17-C ) :   1.0092 B( 14-C , 18-C ) :   0.8665 B( 14-C , 23-H ) :   0.9404
B( 14-C , 24-H ) :   0.9856 B( 15-C , 25-C ) :   0.8811 B( 15-C , 30-H ) :   0.9668
B( 15-C , 31-H ) :   0.9829 B( 16-C , 18-C ) :   0.8664 B( 16-C , 19-H ) :   0.9856
B( 16-C , 20-H ) :   0.9402 B( 17-C , 25-C ) :   0.8807 B( 17-C , 26-H ) :   0.9830
B( 17-C , 27-H ) :   0.9667 B( 18-C , 21-H ) :   0.9508 B( 18-C , 22-H ) :   0.9657
B( 25-C , 28-H ) :   0.9774 B( 25-C , 29-H ) :   0.9511

FINAL SINGLE POINT ENERGY     -4592.671813960984

DIPOLE MOMENT
-------------
                                X             Y             Z
Electronic contribution:     20.35519     -16.33573       5.78806
Nuclear contribution   :    -22.87708      17.94709      -6.44417
                        -----------------------------------------
Total Dipole Moment    :     -2.52190       1.61136      -0.65611
                        -----------------------------------------
Magnitude (a.u.)       :      3.06381
Magnitude (Debye)      :      7.78758

Rotational constants in cm-1:     0.012738     0.002549     0.002429
Rotational constants in MHz :   381.885632    76.406968    72.821042

                             ****ORCA TERMINATED NORMALLY****
TOTAL RUN TIME: 0 days 0 hours 42 minutes 57 seconds 672 msec
