                         Program Version 5.0.4 -  RELEASE  -
|  1> ! nofrozencore ReducedPop printbasis
|  2> ! B3LYP TZVP
|  3>
|  4> %basis
|  5> newgto V "CP(PPP)" end
|  6> end
|  7>
|  8> %pal
|  9> nprocs 8
| 10> end
| 11>
| 12> % sym SymThresh 1e-2 end
| 13> * xyz -2 2
| 14> V -0.9723552119184027 -0.15287832051138392 0.5369152721600838
| 15> S -0.717519202377197 2.3580087421121982 0.44062015065523247
| 16> S -1.2674840116566262 -0.0507505672196215 -1.8243824895486451
| 17> S 0.765458103770899 -0.22116993999614504 2.3658328739210557
| 18> S -0.04753171321895333 -2.2247079167163473 -0.19647099277776414
| 19> O -2.459875936181429 -0.7067406507309967 0.9278945880550574
| 20> C -1.0889710272081514 -1.6421547489729598 -2.598258026811767
| 21> C -0.5326173515753228 -2.629954313968653 -1.8581807613048738
| 22> C 0.15558175959414072 2.5103006291381096 1.9771569000044995
| 23> C 0.7259089247804588 1.516894293672403 2.7190953166592338
| 24> S -1.5103695422701904 -1.8824044054767026 -4.3450139886860475
| 25> S -0.16595055466490852 -4.258680076358886 -2.5654620168254847
| 26> S 1.528536520896662 1.7941500896085625 4.304735934857296
| 27> S 0.12443995404507853 4.237237142680494 2.480892534975085
| 28> C 1.1713811439899853 -3.9668386554113915 -3.826137885913635
| 29> C 2.9949223072159747 2.7515628657996136 3.763311640261241
| 30> C 0.11352632696047894 -2.098855471997834 -5.227142378165398
| 31> C 1.9047635736462787 4.649873877238526 2.347085263355172
| 32> C 0.7171659918260519 -3.5033461709144484 -5.2104646736861415
| 33> H 0.810931545165437 -1.3708054326625287 -4.808190170008721
| 34> H -0.10510894928203662 -1.7994212185040526 -6.2569732774046765
| 35> H 1.5936054331473648 -3.508233236414496 -5.87865782046122
| 36> H -0.0025937497273999036 -4.219679996494836 -5.62221796476379
| 37> H 1.6745071521950827 -4.935725848150589 -3.9043224793228433
| 38> H 1.8782091731796862 -3.2573179020095147 -3.391427119956732
| 39> C 2.770322365185118 4.246288404232008 3.5394876342727795
| 40> H 1.9465247812872088 5.737981948908349 2.2289723644941697
| 41> H 2.268010459228697 4.199736737877426 1.4202644801799782
| 42> H 2.3377150032113407 4.676766618040725 4.4493694982118
| 43> H 3.7601159739984205 4.713165840818728 3.404005379333057
| 44> H 3.3750984778637685 2.267280906774429 2.8608213712664408
| 45> H 3.741561944212618 2.6188245893467457 4.553623503570178
| 46> *
| 47>
| 48> % eprnmr
| 49> gtensor true
| 50> Nuclei = all H {aiso,adip,aorb,fgrad,rho}
| 51> Nuclei = all V {aiso,adip,aorb,fgrad,rho}
| 52> end
| 53>
| 54>                          ****END OF INPUT****

CARTESIAN COORDINATES (ANGSTROEM)
---------------------------------
  V     -0.973428   -0.153171    0.537331
  S     -0.718592    2.357716    0.441036
  S     -1.268557   -0.051043   -1.823967
  S      0.764386   -0.221462    2.366249
  S     -0.048604   -2.225000   -0.196055
  O     -2.460948   -0.707033    0.928310
  C     -1.090044   -1.642447   -2.597842
  C     -0.533690   -2.630247   -1.857765
  C      0.154509    2.510008    1.977573
  C      0.724836    1.516602    2.719511
  S     -1.511442   -1.882697   -4.344598
  S     -0.167023   -4.258972   -2.565046
  S      1.527464    1.793858    4.305152
  S      0.123367    4.236945    2.481308
  C      1.170309   -3.967131   -3.825722
  C      2.993850    2.751271    3.763727
  C      0.112454   -2.099148   -5.226727
  C      1.903691    4.649582    2.347501
  C      0.716093   -3.503638   -5.210049
  H      0.809859   -1.371098   -4.807774
  H     -0.106181   -1.799713   -6.256558
  H      1.592533   -3.508526   -5.878242
  H     -0.003666   -4.219972   -5.621802
  H      1.673435   -4.936018   -3.903907
  H      1.877137   -3.257610   -3.391011
  C      2.769250    4.245996    3.539903
  H      1.945452    5.737690    2.229388
  H      2.266938    4.199444    1.420680
  H      2.336643    4.676474    4.449785
  H      3.759043    4.712874    3.404421
  H      3.374026    2.266989    2.861237
  H      3.740489    2.618532    4.554039

 Total Charge           Charge          ....   -2
 Multiplicity           Mult            ....    2
 Number of Electrons    NEL             ....  233
 Basis Dimension        Dim             ....  517

ORBITAL ENERGIES
----------------
                 SPIN UP ORBITALS
  NO   OCC          E(Eh)            E(eV)
   0   1.0000    -196.643208     -5350.9337
   1   1.0000     -88.680929     -2413.1307
   2   1.0000     -88.680841     -2413.1284
   3   1.0000     -88.673140     -2412.9188
   4   1.0000     -88.673100     -2412.9177
   5   1.0000     -88.613872     -2411.3060
   6   1.0000     -88.613724     -2411.3020
   7   1.0000     -88.612562     -2411.2704
   8   1.0000     -88.612466     -2411.2678
   9   1.0000     -22.017660      -599.1310
  10   1.0000     -18.852119      -512.9922
  11   1.0000     -18.524902      -504.0882
  12   1.0000     -18.518620      -503.9173
  13   1.0000     -18.518550      -503.9154
  14   1.0000     -10.019331      -272.6399
  15   1.0000     -10.019283      -272.6386
  16   1.0000     -10.011987      -272.4400
  17   1.0000     -10.011953      -272.4391
  18   1.0000     -10.009086      -272.3611
  19   1.0000     -10.000828      -272.1364
  20   1.0000      -9.994070      -271.9525
  21   1.0000      -9.993389      -271.9339
  22   1.0000      -9.992232      -271.9024
  23   1.0000      -9.991473      -271.8818
  24   1.0000      -7.733887      -210.4498
  25   1.0000      -7.733805      -210.4475
  26   1.0000      -7.727422      -210.2738
  27   1.0000      -7.727373      -210.2725
  28   1.0000      -7.667868      -208.6533
  29   1.0000      -7.667742      -208.6499
  30   1.0000      -7.667023      -208.6303
  31   1.0000      -7.666934      -208.6279
  32   1.0000      -5.699218      -155.0836
  33   1.0000      -5.699146      -155.0817
  34   1.0000      -5.695255      -154.9758
  35   1.0000      -5.695167      -154.9734
  36   1.0000      -5.692601      -154.9036
  37   1.0000      -5.692550      -154.9022
  38   1.0000      -5.688790      -154.7998
  39   1.0000      -5.688740      -154.7985
  40   1.0000      -5.688665      -154.7964
  41   1.0000      -5.688583      -154.7942
  42   1.0000      -5.682085      -154.6174
  43   1.0000      -5.682040      -154.6162
  44   1.0000      -5.632769      -153.2754
  45   1.0000      -5.632626      -153.2716
  46   1.0000      -5.631887      -153.2514
  47   1.0000      -5.631795      -153.2489
  48   1.0000      -5.626432      -153.1030
  49   1.0000      -5.626310      -153.0997
  50   1.0000      -5.625747      -153.0844
  51   1.0000      -5.625622      -153.0810
  52   1.0000      -5.625420      -153.0754
  53   1.0000      -5.625332      -153.0731
  54   1.0000      -5.624998      -153.0640
  55   1.0000      -5.624908      -153.0615
  56   1.0000      -2.410434       -65.5913
  57   1.0000      -1.448898       -39.4265
  58   1.0000      -1.440225       -39.1905
  59   1.0000      -1.440135       -39.1881
  60   1.0000      -0.644701       -17.5432
  61   1.0000      -0.643690       -17.5157
  62   1.0000      -0.611461       -16.6387
  63   1.0000      -0.597288       -16.2530
  64   1.0000      -0.590507       -16.0685
  65   1.0000      -0.579200       -15.7608
  66   1.0000      -0.573322       -15.6009
  67   1.0000      -0.497289       -13.5319
  68   1.0000      -0.491143       -13.3647
  69   1.0000      -0.484508       -13.1841
  70   1.0000      -0.481259       -13.0957
  71   1.0000      -0.422619       -11.5001
  72   1.0000      -0.418586       -11.3903
  73   1.0000      -0.415622       -11.3096
  74   1.0000      -0.406710       -11.0671
  75   1.0000      -0.377457       -10.2711
  76   1.0000      -0.373887       -10.1740
  77   1.0000      -0.296083        -8.0568
  78   1.0000      -0.290008        -7.8915
  79   1.0000      -0.280510        -7.6331
  80   1.0000      -0.274947        -7.4817
  81   1.0000      -0.260868        -7.0986
  82   1.0000      -0.256258        -6.9731
  83   1.0000      -0.243487        -6.6256
  84   1.0000      -0.238291        -6.4842
  85   1.0000      -0.195674        -5.3246
  86   1.0000      -0.193348        -5.2613
  87   1.0000      -0.192836        -5.2473
  88   1.0000      -0.191363        -5.2073
  89   1.0000      -0.188010        -5.1160
  90   1.0000      -0.182182        -4.9574
  91   1.0000      -0.179823        -4.8932
  92   1.0000      -0.152338        -4.1453
  93   1.0000      -0.150069        -4.0836
  94   1.0000      -0.144721        -3.9380
  95   1.0000      -0.144218        -3.9244
  96   1.0000      -0.141045        -3.8380
  97   1.0000      -0.096428        -2.6239
  98   1.0000      -0.091683        -2.4948
  99   1.0000      -0.088274        -2.4021
 100   1.0000      -0.081325        -2.2130
 101   1.0000      -0.081177        -2.2089
 102   1.0000      -0.071158        -1.9363
 103   1.0000      -0.065408        -1.7798
 104   1.0000      -0.049297        -1.3414
 105   1.0000      -0.043743        -1.1903
 106   1.0000      -0.040446        -1.1006
 107   1.0000      -0.037746        -1.0271
 108   1.0000      -0.026533        -0.7220
 109   1.0000      -0.012553        -0.3416
 110   1.0000      -0.007695        -0.2094
 111   1.0000       0.001665         0.0453
 112   1.0000       0.010657         0.2900
 113   1.0000       0.016518         0.4495
 114   1.0000       0.023486         0.6391
 115   1.0000       0.032825         0.8932
 116   1.0000       0.058766         1.5991
 117   0.0000       0.185084         5.0364
 118   0.0000       0.193133         5.2554
 119   0.0000       0.195200         5.3117
 120   0.0000       0.198340         5.3971
 121   0.0000       0.202344         5.5061

                 SPIN DOWN ORBITALS
  NO   OCC          E(Eh)            E(eV)
   0   1.0000    -196.643320     -5350.9368
   1   1.0000     -88.680943     -2413.1311
   2   1.0000     -88.680855     -2413.1288
   3   1.0000     -88.673138     -2412.9188
   4   1.0000     -88.673098     -2412.9177
   5   1.0000     -88.614026     -2411.3102
   6   1.0000     -88.613878     -2411.3062
   7   1.0000     -88.612719     -2411.2747
   8   1.0000     -88.612624     -2411.2721
   9   1.0000     -22.002690      -598.7236
  10   1.0000     -18.856047      -513.0991
  11   1.0000     -18.519442      -503.9396
  12   1.0000     -18.502865      -503.4885
  13   1.0000     -18.502213      -503.4708
  14   1.0000     -10.019331      -272.6398
  15   1.0000     -10.019283      -272.6385
  16   1.0000     -10.011978      -272.4398
  17   1.0000     -10.011944      -272.4389
  18   1.0000     -10.009087      -272.3611
  19   1.0000     -10.000828      -272.1364
  20   1.0000      -9.993827      -271.9459
  21   1.0000      -9.993147      -271.9274
  22   1.0000      -9.992028      -271.8969
  23   1.0000      -9.991270      -271.8763
  24   1.0000      -7.733902      -210.4502
  25   1.0000      -7.733820      -210.4479
  26   1.0000      -7.727420      -210.2738
  27   1.0000      -7.727370      -210.2724
  28   1.0000      -7.668010      -208.6571
  29   1.0000      -7.667884      -208.6537
  30   1.0000      -7.667174      -208.6344
  31   1.0000      -7.667085      -208.6320
  32   1.0000      -5.699235      -155.0841
  33   1.0000      -5.699163      -155.0821
  34   1.0000      -5.695277      -154.9764
  35   1.0000      -5.695190      -154.9740
  36   1.0000      -5.692594      -154.9034
  37   1.0000      -5.692543      -154.9020
  38   1.0000      -5.688783      -154.7997
  39   1.0000      -5.688734      -154.7983
  40   1.0000      -5.688685      -154.7970
  41   1.0000      -5.688603      -154.7948
  42   1.0000      -5.682090      -154.6175
  43   1.0000      -5.682045      -154.6163
  44   1.0000      -5.632903      -153.2791
  45   1.0000      -5.632760      -153.2752
  46   1.0000      -5.632054      -153.2560
  47   1.0000      -5.631963      -153.2535
  48   1.0000      -5.626851      -153.1144
  49   1.0000      -5.626731      -153.1111
  50   1.0000      -5.625873      -153.0878
  51   1.0000      -5.625788      -153.0855
  52   1.0000      -5.625746      -153.0843
  53   1.0000      -5.625700      -153.0831
  54   1.0000      -5.625141      -153.0679
  55   1.0000      -5.625054      -153.0655
  56   1.0000      -2.365386       -64.3654
  57   1.0000      -1.428543       -38.8726
  58   1.0000      -1.379281       -37.5322
  59   1.0000      -1.377667       -37.4882
  60   1.0000      -0.644667       -17.5423
  61   1.0000      -0.643609       -17.5135
  62   1.0000      -0.620264       -16.8782
  63   1.0000      -0.597183       -16.2502
  64   1.0000      -0.590303       -16.0630
  65   1.0000      -0.579129       -15.7589
  66   1.0000      -0.573344       -15.6015
  67   1.0000      -0.497430       -13.5358
  68   1.0000      -0.491117       -13.3640
  69   1.0000      -0.484423       -13.1818
  70   1.0000      -0.481307       -13.0970
  71   1.0000      -0.422891       -11.5074
  72   1.0000      -0.418833       -11.3970
  73   1.0000      -0.415658       -11.3106
  74   1.0000      -0.406856       -11.0711
  75   1.0000      -0.377452       -10.2710
  76   1.0000      -0.373847       -10.1729
  77   1.0000      -0.296060        -8.0562
  78   1.0000      -0.289964        -7.8903
  79   1.0000      -0.280505        -7.6329
  80   1.0000      -0.274900        -7.4804
  81   1.0000      -0.260709        -7.0942
  82   1.0000      -0.256226        -6.9723
  83   1.0000      -0.243402        -6.6233
  84   1.0000      -0.238221        -6.4823
  85   1.0000      -0.195488        -5.3195
  86   1.0000      -0.193305        -5.2601
  87   1.0000      -0.192439        -5.2365
  88   1.0000      -0.191334        -5.2065
  89   1.0000      -0.187962        -5.1147
  90   1.0000      -0.181896        -4.9497
  91   1.0000      -0.178315        -4.8522
  92   1.0000      -0.151596        -4.1251
  93   1.0000      -0.149775        -4.0756
  94   1.0000      -0.144545        -3.9333
  95   1.0000      -0.144018        -3.9189
  96   1.0000      -0.140891        -3.8338
  97   1.0000      -0.095936        -2.6105
  98   1.0000      -0.091000        -2.4762
  99   1.0000      -0.087756        -2.3880
 100   1.0000      -0.081342        -2.2134
 101   1.0000      -0.081034        -2.2051
 102   1.0000      -0.073146        -1.9904
 103   1.0000      -0.066091        -1.7984
 104   1.0000      -0.044746        -1.2176
 105   1.0000      -0.043533        -1.1846
 106   1.0000      -0.040550        -1.1034
 107   1.0000      -0.036884        -1.0037
 108   1.0000      -0.026519        -0.7216
 109   1.0000      -0.008663        -0.2357
 110   1.0000      -0.008471        -0.2305
 111   1.0000       0.002299         0.0626
 112   1.0000       0.011031         0.3002
 113   1.0000       0.018100         0.4925
 114   1.0000       0.032933         0.8961
 115   1.0000       0.057714         1.5705
 116   0.0000       0.186785         5.0827
 117   0.0000       0.188410         5.1269
 118   0.0000       0.193901         5.2763
 119   0.0000       0.196432         5.3452
 120   0.0000       0.198636         5.4052

MULLIKEN ATOMIC CHARGES AND SPIN POPULATIONS
--------------------------------------------
   0 V :    0.406811    1.213632
   1 S :   -0.291215   -0.029692
   2 S :   -0.196831   -0.018937
   3 S :   -0.290991   -0.029667
   4 S :   -0.196818   -0.018902
   5 O :   -0.506871   -0.151995
   6 C :   -0.120898    0.006097
   7 C :   -0.119885    0.005940
   8 C :   -0.115027    0.010142
   9 C :   -0.115552    0.010065
  10 S :   -0.047776   -0.000679
  11 S :   -0.047719   -0.000696
  12 S :   -0.039165    0.001478
  13 S :   -0.039316    0.001432
  14 C :   -0.332821    0.000111
  15 C :   -0.344033    0.000590
  16 C :   -0.332070    0.000113
  17 C :   -0.343321    0.000622
  18 C :   -0.098662    0.000184
  19 H :    0.147063   -0.000070
  20 H :    0.104334   -0.000021
  21 H :    0.050410   -0.000033
  22 H :    0.082097   -0.000035
  23 H :    0.104303   -0.000022
  24 H :    0.147432   -0.000068
  25 C :   -0.069221   -0.000124
  26 H :    0.099627    0.000145
  27 H :    0.146275   -0.000033
  28 H :    0.075221    0.000191
  29 H :    0.038643    0.000116
  30 H :    0.146471   -0.000024
  31 H :    0.099504    0.000142
Sum of atomic charges         :   -2.0000000

LOEWDIN ATOMIC CHARGES AND SPIN POPULATIONS
-------------------------------------------
   0 V :   -0.238937    1.168620
   1 S :    0.043652   -0.019341
   2 S :    0.139152   -0.014249
   3 S :    0.043821   -0.019334
   4 S :    0.138966   -0.014313
   5 O :   -0.377711   -0.137459
   6 C :   -0.551493    0.008246
   7 C :   -0.550765    0.008133
   8 C :   -0.550924    0.009982
   9 C :   -0.551135    0.009999
  10 S :    0.333723   -0.001339
  11 S :    0.333519   -0.001350
  12 S :    0.339741    0.000693
  13 S :    0.339782    0.000664
  14 C :   -0.291724    0.000037
  15 C :   -0.295812    0.000381
  16 C :   -0.291837    0.000037
  17 C :   -0.295915    0.000395
  18 C :   -0.183374   -0.000059
  19 H :    0.066548   -0.000053
  20 H :    0.048463   -0.000020
  21 H :    0.048783   -0.000026
  22 H :    0.054312   -0.000013
  23 H :    0.048487   -0.000020
  24 H :    0.066677   -0.000053
  25 C :   -0.186299   -0.000031
  26 H :    0.046278    0.000117
  27 H :    0.065047    0.000049
  28 H :    0.052714    0.000064
  29 H :    0.044892    0.000074
  30 H :    0.065155    0.000052
  31 H :    0.046213    0.000116

  Mayer bond orders larger than 0.100000
B(  0-V ,  1-S ) :   0.7247 B(  0-V ,  2-S ) :   0.8794 B(  0-V ,  3-S ) :   0.7265
B(  0-V ,  4-S ) :   0.8759 B(  0-V ,  5-O ) :   2.1072 B(  1-S ,  8-C ) :   1.1610
B(  2-S ,  6-C ) :   1.1160 B(  3-S ,  9-C ) :   1.1611 B(  4-S ,  7-C ) :   1.1190
B(  6-C ,  7-C ) :   1.5449 B(  6-C , 10-S ) :   0.9629 B(  7-C , 11-S ) :   0.9623
B(  8-C ,  9-C ) :   1.4806 B(  8-C , 13-S ) :   0.9432 B(  9-C , 12-S ) :   0.9427
B( 10-S , 16-C ) :   0.9956 B( 11-S , 14-C ) :   0.9959 B( 12-S , 15-C ) :   1.0116
B( 13-S , 17-C ) :   1.0114 B( 14-C , 18-C ) :   0.8827 B( 14-C , 23-H ) :   0.9715
B( 14-C , 24-H ) :   0.9736 B( 15-C , 25-C ) :   0.8722 B( 15-C , 30-H ) :   0.9767
B( 15-C , 31-H ) :   0.9687 B( 16-C , 18-C ) :   0.8827 B( 16-C , 19-H ) :   0.9736
B( 16-C , 20-H ) :   0.9714 B( 17-C , 25-C ) :   0.8723 B( 17-C , 26-H ) :   0.9687
B( 17-C , 27-H ) :   0.9765 B( 18-C , 21-H ) :   0.9554 B( 18-C , 22-H ) :   0.9744
B( 25-C , 28-H ) :   0.9733 B( 25-C , 29-H ) :   0.9490

FINAL SINGLE POINT ENERGY     -4592.694610146288

DIPOLE MOMENT
-------------
                                X             Y             Z
Electronic contribution:    -23.56042      -4.95171      11.38609
Nuclear contribution   :     26.32923       5.50758     -12.75328
                        -----------------------------------------
Total Dipole Moment    :      2.76882       0.55587      -1.36719
                        -----------------------------------------
Magnitude (a.u.)       :      3.13760
Magnitude (Debye)      :      7.97514

Rotational constants in cm-1:     0.012739     0.002547     0.002429
Rotational constants in MHz :   381.909980    76.364881    72.830185

                             ****ORCA TERMINATED NORMALLY****
TOTAL RUN TIME: 0 days 0 hours 27 minutes 41 seconds 822 msec
