                         Program Version 5.0.4 -  RELEASE  -
|  1> ! nofrozencore ReducedPop printbasis
|  2> ! B3LYP TZVP
|  3>
|  4> %basis
|  5> newgto V "CP(PPP)" end
|  6> end
|  7>
|  8> %pal
|  9> nprocs 4
| 10> end
| 11>
| 12> % sym SymThresh 1e-2 end
| 13> * xyz -2 2
| 14> V 1.0950292146269007 0.16880038823227597 -0.1983198099717368
| 15> S -0.12410115687681535 2.2485526507973863 -0.8354746801159708
| 16> S 0.6368968307739836 0.649570573189303 2.2278850823847662
| 17> S 0.0292884510810975 -0.5684436964419579 -2.326822720667106
| 18> S 0.8195163436008466 -2.1502469439541954 0.7396459728219591
| 19> O 2.6529868809865857 0.4047960506790401 -0.464626977992795
| 20> C 0.9165063618631031 -0.8019059825929833 3.0236660726958657
| 21> C 0.9923600331457316 -1.9753169377260944 2.4001829349250463
| 22> C -0.4779181908348208 2.0514530623090983 -2.482888449035275
| 23> C -0.41356050796603355 0.8715116710682738 -3.1077758202738273
| 24> S 0.8923128833274802 -0.6501726621529331 4.688898591450103
| 25> S 1.0654635013087361 -3.4378654612899244 3.208638301954545
| 26> S -0.9339737571042684 0.6403954006237129 -4.707320279595975
| 27> S -1.0867902605202824 3.4570272704239895 -3.216145771118143
| 28> C -0.49292903114927056 -3.7212315431153566 4.148144407686712
| 29> C -2.754329621980103 0.9101622924193983 -4.778492678249157
| 30> C -0.6350133782877034 -1.417462091036236 5.373667437390485
| 31> C -2.878835936845462 3.21210449556289 -3.5608572385914012
| 32> C -0.6235979219645218 -2.9402916702341875 5.451382731012286
| 33> H -1.529661405663767 -1.0229047162710312 4.846434674774667
| 34> H -0.6425528551502682 -1.0184989035066796 6.413755631218726
| 35> H -1.5442942671220041 -3.268465311387016 5.9614756463572744
| 36> H 0.2158182242123566 -3.2304894217796303 6.094250024074802
| 37> H -0.41224200302552055 -4.8032845367513 4.400527823112626
| 38> H -1.3703018452779114 -3.5874030835385025 3.479987768226117
| 39> C -3.205919353398173 2.36704966993125 -4.787780013356336
| 40> H -3.225486183111802 4.2466957114323565 -3.747544591605
| 41> H -3.3817939744389602 2.843260740173379 -2.649567379370275
| 42> H -2.7531372372675267 2.852735136908 -5.659919180888576
| 43> H -4.297287953777921 2.3891188194664656 -4.940844794772381
| 44> H -3.2445527310433375 0.3231385081200548 -3.981872297971792
| 45> H -3.0217611961639363 0.4558608921250598 -5.751900202588866
| 46> *
| 47>
| 48> % eprnmr
| 49> gtensor true
| 50> Nuclei = all H {aiso,adip,aorb,fgrad,rho}
| 51> Nuclei = all V {aiso,adip,aorb,fgrad,rho}
| 52> end
| 53>
| 54>                          ****END OF INPUT****

CARTESIAN COORDINATES (ANGSTROEM)
---------------------------------
  V      1.096200    0.168944   -0.198448
  S     -0.122930    2.248696   -0.835603
  S      0.638068    0.649714    2.227757
  S      0.030460   -0.568300   -2.326951
  S      0.820688   -2.150104    0.739518
  O      2.654158    0.404939   -0.464755
  C      0.917678   -0.801763    3.023538
  C      0.993531   -1.975174    2.400055
  C     -0.476747    2.051596   -2.483017
  C     -0.412389    0.871655   -3.107904
  S      0.893484   -0.650029    4.688770
  S      1.066635   -3.437722    3.208510
  S     -0.932803    0.640539   -4.707449
  S     -1.085619    3.457171   -3.216274
  C     -0.491758   -3.721088    4.148016
  C     -2.753158    0.910306   -4.778621
  C     -0.633842   -1.417319    5.373539
  C     -2.877665    3.212248   -3.560986
  C     -0.622427   -2.940148    5.451254
  H     -1.528490   -1.022761    4.846306
  H     -0.641382   -1.018356    6.413627
  H     -1.543123   -3.268322    5.961347
  H      0.216989   -3.230346    6.094122
  H     -0.411071   -4.803141    4.400399
  H     -1.369131   -3.587260    3.479859
  C     -3.204748    2.367193   -4.787908
  H     -3.224315    4.246839   -3.747673
  H     -3.380623    2.843404   -2.649696
  H     -2.751966    2.852878   -5.660048
  H     -4.296117    2.389262   -4.940973
  H     -3.243382    0.323282   -3.982001
  H     -3.020590    0.456004   -5.752029

 Total Charge           Charge          ....   -2
 Multiplicity           Mult            ....    2
 Number of Electrons    NEL             ....  233
 Basis Dimension        Dim             ....  517

ORBITAL ENERGIES
----------------
                 SPIN UP ORBITALS
  NO   OCC          E(Eh)            E(eV)
   0   1.0000    -196.645276     -5350.9900
   1   1.0000     -88.668766     -2412.7998
   2   1.0000     -88.668720     -2412.7985
   3   1.0000     -88.665680     -2412.7158
   4   1.0000     -88.665560     -2412.7125
   5   1.0000     -88.609069     -2411.1753
   6   1.0000     -88.609047     -2411.1747
   7   1.0000     -88.607008     -2411.1193
   8   1.0000     -88.607002     -2411.1191
   9   1.0000     -22.020091      -599.1971
  10   1.0000     -18.861214      -513.2397
  11   1.0000     -18.527156      -504.1496
  12   1.0000     -18.521125      -503.9854
  13   1.0000     -18.520986      -503.9817
  14   1.0000     -10.015960      -272.5481
  15   1.0000     -10.015925      -272.5472
  16   1.0000     -10.015874      -272.5458
  17   1.0000     -10.015797      -272.5437
  18   1.0000     -10.003181      -272.2004
  19   1.0000     -10.001944      -272.1667
  20   1.0000      -9.976666      -271.4789
  21   1.0000      -9.975819      -271.4558
  22   1.0000      -9.971558      -271.3399
  23   1.0000      -9.970666      -271.3156
  24   1.0000      -7.724873      -210.2045
  25   1.0000      -7.724842      -210.2036
  26   1.0000      -7.722500      -210.1399
  27   1.0000      -7.722388      -210.1369
  28   1.0000      -7.665292      -208.5832
  29   1.0000      -7.665237      -208.5817
  30   1.0000      -7.663729      -208.5407
  31   1.0000      -7.663700      -208.5399
  32   1.0000      -5.690102      -154.8355
  33   1.0000      -5.690064      -154.8345
  34   1.0000      -5.687716      -154.7706
  35   1.0000      -5.687599      -154.7674
  36   1.0000      -5.685610      -154.7133
  37   1.0000      -5.685580      -154.7125
  38   1.0000      -5.683073      -154.6443
  39   1.0000      -5.682963      -154.6413
  40   1.0000      -5.679730      -154.5533
  41   1.0000      -5.679695      -154.5524
  42   1.0000      -5.677374      -154.4892
  43   1.0000      -5.677259      -154.4861
  44   1.0000      -5.629537      -153.1875
  45   1.0000      -5.629492      -153.1863
  46   1.0000      -5.627849      -153.1415
  47   1.0000      -5.627824      -153.1409
  48   1.0000      -5.623775      -153.0307
  49   1.0000      -5.623722      -153.0293
  50   1.0000      -5.623446      -153.0217
  51   1.0000      -5.623421      -153.0211
  52   1.0000      -5.622194      -152.9877
  53   1.0000      -5.622169      -152.9870
  54   1.0000      -5.621910      -152.9800
  55   1.0000      -5.621908      -152.9799
  56   1.0000      -2.413266       -65.6683
  57   1.0000      -1.454784       -39.5867
  58   1.0000      -1.442475       -39.2517
  59   1.0000      -1.441513       -39.2256
  60   1.0000      -0.659193       -17.9376
  61   1.0000      -0.655608       -17.8400
  62   1.0000      -0.621816       -16.9205
  63   1.0000      -0.611105       -16.6290
  64   1.0000      -0.609583       -16.5876
  65   1.0000      -0.587467       -15.9858
  66   1.0000      -0.585388       -15.9292
  67   1.0000      -0.508321       -13.8321
  68   1.0000      -0.505543       -13.7565
  69   1.0000      -0.496946       -13.5226
  70   1.0000      -0.495331       -13.4786
  71   1.0000      -0.424732       -11.5575
  72   1.0000      -0.422913       -11.5080
  73   1.0000      -0.416495       -11.3334
  74   1.0000      -0.413537       -11.2529
  75   1.0000      -0.372283       -10.1303
  76   1.0000      -0.370216       -10.0741
  77   1.0000      -0.297152        -8.0859
  78   1.0000      -0.297032        -8.0827
  79   1.0000      -0.277396        -7.5483
  80   1.0000      -0.275628        -7.5002
  81   1.0000      -0.262976        -7.1559
  82   1.0000      -0.259160        -7.0521
  83   1.0000      -0.243526        -6.6267
  84   1.0000      -0.242038        -6.5862
  85   1.0000      -0.203119        -5.5272
  86   1.0000      -0.199579        -5.4308
  87   1.0000      -0.189725        -5.1627
  88   1.0000      -0.189515        -5.1570
  89   1.0000      -0.187429        -5.1002
  90   1.0000      -0.184927        -5.0321
  91   1.0000      -0.181830        -4.9479
  92   1.0000      -0.162788        -4.4297
  93   1.0000      -0.153920        -4.1884
  94   1.0000      -0.152642        -4.1536
  95   1.0000      -0.148184        -4.0323
  96   1.0000      -0.141271        -3.8442
  97   1.0000      -0.099247        -2.7006
  98   1.0000      -0.098075        -2.6688
  99   1.0000      -0.088398        -2.4054
 100   1.0000      -0.087558        -2.3826
 101   1.0000      -0.081331        -2.2131
 102   1.0000      -0.079306        -2.1580
 103   1.0000      -0.069111        -1.8806
 104   1.0000      -0.050383        -1.3710
 105   1.0000      -0.044482        -1.2104
 106   1.0000      -0.038877        -1.0579
 107   1.0000      -0.038351        -1.0436
 108   1.0000      -0.028365        -0.7718
 109   1.0000      -0.008235        -0.2241
 110   1.0000      -0.005772        -0.1571
 111   1.0000      -0.001618        -0.0440
 112   1.0000       0.009866         0.2685
 113   1.0000       0.014048         0.3823
 114   1.0000       0.022659         0.6166
 115   1.0000       0.040359         1.0982
 116   1.0000       0.062195         1.6924
 117   0.0000       0.183500         4.9933
 118   0.0000       0.193704         5.2710
 119   0.0000       0.196364         5.3433
 120   0.0000       0.196760         5.3541
 121   0.0000       0.208328         5.6689

                 SPIN DOWN ORBITALS
  NO   OCC          E(Eh)            E(eV)
   0   1.0000    -196.645415     -5350.9938
   1   1.0000     -88.668785     -2412.8003
   2   1.0000     -88.668738     -2412.7990
   3   1.0000     -88.665701     -2412.7164
   4   1.0000     -88.665581     -2412.7131
   5   1.0000     -88.609238     -2411.1800
   6   1.0000     -88.609216     -2411.1794
   7   1.0000     -88.607180     -2411.1239
   8   1.0000     -88.607174     -2411.1238
   9   1.0000     -22.005036      -598.7875
  10   1.0000     -18.864917      -513.3405
  11   1.0000     -18.521827      -504.0045
  12   1.0000     -18.505333      -503.5557
  13   1.0000     -18.504386      -503.5299
  14   1.0000     -10.015957      -272.5480
  15   1.0000     -10.015922      -272.5471
  16   1.0000     -10.015872      -272.5457
  17   1.0000     -10.015796      -272.5437
  18   1.0000     -10.003182      -272.2004
  19   1.0000     -10.001946      -272.1668
  20   1.0000      -9.976480      -271.4738
  21   1.0000      -9.975634      -271.4508
  22   1.0000      -9.971398      -271.3355
  23   1.0000      -9.970507      -271.3113
  24   1.0000      -7.724893      -210.2050
  25   1.0000      -7.724861      -210.2042
  26   1.0000      -7.722522      -210.1405
  27   1.0000      -7.722410      -210.1375
  28   1.0000      -7.665451      -208.5875
  29   1.0000      -7.665396      -208.5860
  30   1.0000      -7.663892      -208.5451
  31   1.0000      -7.663862      -208.5443
  32   1.0000      -5.690121      -154.8361
  33   1.0000      -5.690083      -154.8350
  34   1.0000      -5.687736      -154.7712
  35   1.0000      -5.687620      -154.7680
  36   1.0000      -5.685634      -154.7140
  37   1.0000      -5.685603      -154.7131
  38   1.0000      -5.683098      -154.6449
  39   1.0000      -5.682988      -154.6420
  40   1.0000      -5.679763      -154.5542
  41   1.0000      -5.679729      -154.5533
  42   1.0000      -5.677414      -154.4903
  43   1.0000      -5.677299      -154.4872
  44   1.0000      -5.629706      -153.1921
  45   1.0000      -5.629661      -153.1909
  46   1.0000      -5.628018      -153.1462
  47   1.0000      -5.627993      -153.1455
  48   1.0000      -5.624160      -153.0412
  49   1.0000      -5.624113      -153.0399
  50   1.0000      -5.623628      -153.0267
  51   1.0000      -5.623598      -153.0259
  52   1.0000      -5.622587      -152.9984
  53   1.0000      -5.622566      -152.9978
  54   1.0000      -5.622093      -152.9849
  55   1.0000      -5.622090      -152.9849
  56   1.0000      -2.367995       -64.4364
  57   1.0000      -1.435204       -39.0539
  58   1.0000      -1.380210       -37.5574
  59   1.0000      -1.378672       -37.5156
  60   1.0000      -0.659154       -17.9365
  61   1.0000      -0.655550       -17.8384
  62   1.0000      -0.629750       -17.1364
  63   1.0000      -0.611100       -16.6289
  64   1.0000      -0.609539       -16.5864
  65   1.0000      -0.587507       -15.9869
  66   1.0000      -0.585408       -15.9297
  67   1.0000      -0.508432       -13.8351
  68   1.0000      -0.505625       -13.7588
  69   1.0000      -0.497082       -13.5263
  70   1.0000      -0.495475       -13.4826
  71   1.0000      -0.425067       -11.5667
  72   1.0000      -0.423308       -11.5188
  73   1.0000      -0.416585       -11.3358
  74   1.0000      -0.413685       -11.2569
  75   1.0000      -0.372294       -10.1306
  76   1.0000      -0.370268       -10.0755
  77   1.0000      -0.297156        -8.0860
  78   1.0000      -0.297033        -8.0827
  79   1.0000      -0.277388        -7.5481
  80   1.0000      -0.275628        -7.5002
  81   1.0000      -0.262931        -7.1547
  82   1.0000      -0.259231        -7.0540
  83   1.0000      -0.243512        -6.6263
  84   1.0000      -0.242042        -6.5863
  85   1.0000      -0.202822        -5.5191
  86   1.0000      -0.199567        -5.4305
  87   1.0000      -0.189684        -5.1616
  88   1.0000      -0.188710        -5.1351
  89   1.0000      -0.187415        -5.0998
  90   1.0000      -0.184920        -5.0319
  91   1.0000      -0.181218        -4.9312
  92   1.0000      -0.162427        -4.4199
  93   1.0000      -0.153778        -4.1845
  94   1.0000      -0.152579        -4.1519
  95   1.0000      -0.147873        -4.0238
  96   1.0000      -0.141095        -3.8394
  97   1.0000      -0.097933        -2.6649
  98   1.0000      -0.097674        -2.6578
  99   1.0000      -0.088991        -2.4216
 100   1.0000      -0.087309        -2.3758
 101   1.0000      -0.083748        -2.2789
 102   1.0000      -0.079490        -2.1630
 103   1.0000      -0.070535        -1.9194
 104   1.0000      -0.045602        -1.2409
 105   1.0000      -0.043988        -1.1970
 106   1.0000      -0.039032        -1.0621
 107   1.0000      -0.038549        -1.0490
 108   1.0000      -0.027228        -0.7409
 109   1.0000      -0.007550        -0.2055
 110   1.0000      -0.006840        -0.1861
 111   1.0000      -0.002014        -0.0548
 112   1.0000       0.012446         0.3387
 113   1.0000       0.023528         0.6402
 114   1.0000       0.040526         1.1028
 115   1.0000       0.061378         1.6702
 116   0.0000       0.185179         5.0390
 117   0.0000       0.189367         5.1529
 118   0.0000       0.194010         5.2793
 119   0.0000       0.196435         5.3453
 120   0.0000       0.197129         5.3642

MULLIKEN ATOMIC CHARGES AND SPIN POPULATIONS
--------------------------------------------
   0 V :    0.454384    1.219301
   1 S :   -0.251726   -0.023490
   2 S :   -0.254058   -0.023650
   3 S :   -0.251689   -0.023372
   4 S :   -0.254451   -0.023552
   5 O :   -0.510646   -0.143047
   6 C :   -0.133844    0.004602
   7 C :   -0.130763    0.004666
   8 C :   -0.128512    0.005697
   9 C :   -0.128885    0.005586
  10 S :   -0.022326   -0.000874
  11 S :   -0.021942   -0.000895
  12 S :   -0.025607   -0.000599
  13 S :   -0.025651   -0.000630
  14 C :   -0.285680    0.000139
  15 C :   -0.296420    0.000205
  16 C :   -0.284361    0.000134
  17 C :   -0.296457    0.000219
  18 C :   -0.129237    0.000016
  19 H :    0.125179   -0.000141
  20 H :    0.085952    0.000015
  21 H :    0.041813   -0.000027
  22 H :    0.075031    0.000001
  23 H :    0.086013    0.000016
  24 H :    0.125507   -0.000141
  25 C :   -0.120283    0.000058
  26 H :    0.089884    0.000021
  27 H :    0.130227   -0.000138
  28 H :    0.075508    0.000004
  29 H :    0.042903   -0.000006
  30 H :    0.130181   -0.000135
  31 H :    0.089957    0.000019
Sum of atomic charges         :   -2.0000000

LOEWDIN ATOMIC CHARGES AND SPIN POPULATIONS
-------------------------------------------
   0 V :   -0.187912    1.178512
   1 S :    0.110259   -0.017118
   2 S :    0.113370   -0.017629
   3 S :    0.110111   -0.017038
   4 S :    0.113192   -0.017559
   5 O :   -0.352029   -0.128319
   6 C :   -0.639781    0.006021
   7 C :   -0.639174    0.006010
   8 C :   -0.620833    0.007051
   9 C :   -0.621229    0.007079
  10 S :    0.390212   -0.001818
  11 S :    0.390080   -0.001829
  12 S :    0.380140   -0.001553
  13 S :    0.380149   -0.001569
  14 C :   -0.298784    0.000044
  15 C :   -0.297006    0.000097
  16 C :   -0.298889    0.000039
  17 C :   -0.297077    0.000107
  18 C :   -0.190604   -0.000128
  19 H :    0.060454   -0.000070
  20 H :    0.051520   -0.000003
  21 H :    0.044637   -0.000025
  22 H :    0.053369   -0.000007
  23 H :    0.051528   -0.000002
  24 H :    0.060591   -0.000070
  25 C :   -0.188744   -0.000101
  26 H :    0.050443    0.000002
  27 H :    0.061429   -0.000058
  28 H :    0.053399   -0.000003
  29 H :    0.045272   -0.000010
  30 H :    0.061481   -0.000057
  31 H :    0.050427    0.000002

  Mayer bond orders larger than 0.100000
B(  0-V ,  1-S ) :   0.7870 B(  0-V ,  2-S ) :   0.7774 B(  0-V ,  3-S ) :   0.7889
B(  0-V ,  4-S ) :   0.7756 B(  0-V ,  5-O ) :   2.1145 B(  1-S ,  8-C ) :   1.1993
B(  2-S ,  6-C ) :   1.2153 B(  3-S ,  9-C ) :   1.1985 B(  4-S ,  7-C ) :   1.2154
B(  6-C ,  7-C ) :   1.3622 B(  6-C , 10-S ) :   1.0886 B(  7-C , 11-S ) :   1.0881
B(  8-C ,  9-C ) :   1.3977 B(  8-C , 13-S ) :   1.0585 B(  9-C , 12-S ) :   1.0584
B( 10-S , 16-C ) :   0.9674 B( 11-S , 14-C ) :   0.9680 B( 12-S , 15-C ) :   0.9773
B( 13-S , 17-C ) :   0.9777 B( 14-C , 18-C ) :   0.8897 B( 14-C , 23-H ) :   0.9733
B( 14-C , 24-H ) :   0.9614 B( 15-C , 25-C ) :   0.8879 B( 15-C , 30-H ) :   0.9644
B( 15-C , 31-H ) :   0.9730 B( 16-C , 18-C ) :   0.8897 B( 16-C , 19-H ) :   0.9614
B( 16-C , 20-H ) :   0.9733 B( 17-C , 25-C ) :   0.8880 B( 17-C , 26-H ) :   0.9730
B( 17-C , 27-H ) :   0.9643 B( 18-C , 21-H ) :   0.9480 B( 18-C , 22-H ) :   0.9813
B( 25-C , 28-H ) :   0.9799 B( 25-C , 29-H ) :   0.9492

FINAL SINGLE POINT ENERGY     -4592.670908606738

DIPOLE MOMENT
-------------
                                X             Y             Z
Electronic contribution:     25.81683       3.96870      -4.67686
Nuclear contribution   :    -28.70261      -4.36307       5.10439
                        -----------------------------------------
Total Dipole Moment    :     -2.88578      -0.39437       0.42753
                        -----------------------------------------
Magnitude (a.u.)       :      2.94381
Magnitude (Debye)      :      7.48258

Rotational constants in cm-1:     0.013196     0.002571     0.002466
Rotational constants in MHz :   395.618986    77.066590    73.916767

                             ****ORCA TERMINATED NORMALLY****
TOTAL RUN TIME: 0 days 0 hours 43 minutes 32 seconds 431 msec
