                         Program Version 5.0.4 -  RELEASE  -
|  1> ! nofrozencore ReducedPop printbasis
|  2> ! B3LYP TZVP
|  3>
|  4> %basis
|  5> newgto V "CP(PPP)" end
|  6> end
|  7>
|  8> %pal
|  9> nprocs 4
| 10> end
| 11>
| 12> % sym SymThresh 1e-2 end
| 13> * xyz -2 2
| 14> V -0.49836082038426577 0.9938015113814961 0.09018327624773598
| 15> S -1.537852578023097 -0.19155373145274435 -1.7859634465008642
| 16> S -1.6998793442233238 -0.5860981963970714 1.524680267417396
| 17> S 1.3788112999459117 1.2295711038423456 -1.4653694784426832
| 18> S 1.2027580793355328 0.8625049950840715 1.8498257120483341
| 19> O -1.2143891004890026 2.415479617433833 0.21407355244685256
| 20> C -0.854945943211623 -0.48831492391960946 3.0746110103231556
| 21> C 0.35635907053630234 0.11469278792352088 3.209687089774147
| 22> C -0.5384907536935758 0.25088569451216886 -3.175400286418969
| 23> C 0.6776778195161107 0.843547153040044 -3.042035884711738
| 24> S -1.7103592959613891 -1.275934451114786 4.453935694263544
| 25> S 1.2384281869008433 0.18550077703022727 4.781927687392572
| 26> S 1.7174956776536838 1.262869023086882 -4.4555754207009555
| 27> S -1.2420690373521308 -0.17828809661033374 -4.780776699924418
| 28> C 1.6757401884605856 -1.5695803444031693 5.131393157911339
| 29> C 2.19331883597682 -0.3898331320618748 -5.126344115661483
| 30> C -0.6501480634804837 -2.7219594404695187 4.875198787085552
| 31> C -0.12214533689485553 -1.516760681978784 -5.381620392724118
| 32> C 0.5766390510545839 -2.4377579003774588 5.736283751506035
| 33> H -0.2235268391681809 -3.3188350020938686 3.5378884130964443
| 34> H -1.1763600138078947 -3.3137505685996187 5.256123766582994
| 35> H 1.0382406413490692 -3.4289133717660243 6.004284470391474
| 36> H 0.2910721308061426 -2.0387542571880433 6.532337449043077
| 37> H 2.387726403912578 -1.550713002712084 5.6486579581992205
| 38> H 2.124793079714395 -2.1500968556076177 3.7986230897031694
| 39> C 1.17607134153324 -1.062402979581187 -6.046574892545797
| 40> H -0.7119568382792619 -2.0733670078293684 -6.086921207372582
| 41> H 0.08812565592793206 -2.1932466489230182 -4.4988051733254935
| 42> H 0.9405393041738648 -0.3935221413635742 -6.861570969845956
| 43> H 1.657717973135319 -1.9520865719730933 -6.4891888612645925
| 44> H 2.4366771441637054 -1.0495066738464638 -4.238316309261372
| 45> H 3.1065170895236576 -0.21656870731910458 -5.665035935877424
| 46> *
| 47>
| 48> % eprnmr
| 49> gtensor true
| 50> Nuclei = all H {aiso,adip,aorb,fgrad,rho}
| 51> Nuclei = all V {aiso,adip,aorb,fgrad,rho}
| 52> end
| 53>
| 54>                          ****END OF INPUT****

CARTESIAN COORDINATES (ANGSTROEM)
---------------------------------
  V     -0.498900    0.994844    0.090359
  S     -1.538391   -0.190511   -1.785788
  S     -1.700418   -0.585056    1.524856
  S      1.378272    1.230614   -1.465194
  S      1.202219    0.863548    1.850001
  O     -1.214928    2.416522    0.214249
  C     -0.855485   -0.487272    3.074787
  C      0.355820    0.115735    3.209863
  C     -0.539030    0.251928   -3.175225
  C      0.677139    0.844590   -3.041860
  S     -1.710898   -1.274892    4.454111
  S      1.237889    0.186543    4.782103
  S      1.716957    1.263912   -4.455400
  S     -1.242608   -0.177245   -4.780601
  C      1.675201   -1.568538    5.131569
  C      2.192780   -0.388791   -5.126168
  C     -0.650687   -2.720917    4.875375
  C     -0.122684   -1.515718   -5.381445
  C      0.576100   -2.436715    5.736459
  H     -0.224066   -3.317792    3.538064
  H     -1.176899   -3.312708    5.256300
  H      1.037702   -3.427871    6.004460
  H      0.290533   -2.037712    6.532513
  H      2.387188   -1.549670    5.648834
  H      2.124254   -2.149054    3.798799
  C      1.175532   -1.061360   -6.046399
  H     -0.712496   -2.072324   -6.086745
  H      0.087587   -2.192204   -4.498629
  H      0.940000   -0.392480   -6.861395
  H      1.657179   -1.951044   -6.489013
  H      2.436138   -1.048464   -4.238141
  H      3.105978   -0.215526   -5.664860

 Total Charge           Charge          ....   -2
 Multiplicity           Mult            ....    2
 Number of Electrons    NEL             ....  233
 Basis Dimension        Dim             ....  517

ORBITAL ENERGIES
----------------
                 SPIN UP ORBITALS
  NO   OCC          E(Eh)            E(eV)
   0   1.0000    -196.640745     -5350.8667
   1   1.0000     -88.680588     -2413.1215
   2   1.0000     -88.680585     -2413.1214
   3   1.0000     -88.676429     -2413.0083
   4   1.0000     -88.676402     -2413.0076
   5   1.0000     -88.613058     -2411.2839
   6   1.0000     -88.613015     -2411.2827
   7   1.0000     -88.612078     -2411.2572
   8   1.0000     -88.612006     -2411.2553
   9   1.0000     -22.016529      -599.1002
  10   1.0000     -18.857676      -513.1435
  11   1.0000     -18.523348      -504.0459
  12   1.0000     -18.517582      -503.8890
  13   1.0000     -18.517545      -503.8880
  14   1.0000     -10.023141      -272.7435
  15   1.0000     -10.023117      -272.7429
  16   1.0000     -10.016595      -272.5654
  17   1.0000     -10.016588      -272.5652
  18   1.0000     -10.003366      -272.2054
  19   1.0000      -9.996366      -272.0149
  20   1.0000      -9.993294      -271.9313
  21   1.0000      -9.992575      -271.9118
  22   1.0000      -9.991733      -271.8889
  23   1.0000      -9.991019      -271.8694
  24   1.0000      -7.734063      -210.4545
  25   1.0000      -7.734050      -210.4542
  26   1.0000      -7.730084      -210.3463
  27   1.0000      -7.730065      -210.3458
  28   1.0000      -7.667402      -208.6406
  29   1.0000      -7.667388      -208.6402
  30   1.0000      -7.666499      -208.6160
  31   1.0000      -7.666438      -208.6144
  32   1.0000      -5.699287      -155.0855
  33   1.0000      -5.699281      -155.0853
  34   1.0000      -5.695351      -154.9784
  35   1.0000      -5.695338      -154.9780
  36   1.0000      -5.695328      -154.9778
  37   1.0000      -5.695309      -154.9772
  38   1.0000      -5.691426      -154.8716
  39   1.0000      -5.691410      -154.8711
  40   1.0000      -5.688955      -154.8043
  41   1.0000      -5.688955      -154.8043
  42   1.0000      -5.684842      -154.6924
  43   1.0000      -5.684827      -154.6920
  44   1.0000      -5.632306      -153.2628
  45   1.0000      -5.632287      -153.2623
  46   1.0000      -5.631339      -153.2365
  47   1.0000      -5.631285      -153.2351
  48   1.0000      -5.625834      -153.0867
  49   1.0000      -5.625822      -153.0864
  50   1.0000      -5.625352      -153.0736
  51   1.0000      -5.625335      -153.0732
  52   1.0000      -5.624952      -153.0627
  53   1.0000      -5.624890      -153.0610
  54   1.0000      -5.624472      -153.0497
  55   1.0000      -5.624404      -153.0478
  56   1.0000      -2.410209       -65.5851
  57   1.0000      -1.451540       -39.4984
  58   1.0000      -1.440006       -39.1846
  59   1.0000      -1.438920       -39.1550
  60   1.0000      -0.651521       -17.7288
  61   1.0000      -0.643306       -17.5052
  62   1.0000      -0.618717       -16.8361
  63   1.0000      -0.599411       -16.3108
  64   1.0000      -0.593574       -16.1520
  65   1.0000      -0.584141       -15.8953
  66   1.0000      -0.575300       -15.6547
  67   1.0000      -0.497796       -13.5457
  68   1.0000      -0.497232       -13.5304
  69   1.0000      -0.490701       -13.3526
  70   1.0000      -0.486736       -13.2448
  71   1.0000      -0.429465       -11.6863
  72   1.0000      -0.424980       -11.5643
  73   1.0000      -0.421174       -11.4607
  74   1.0000      -0.409377       -11.1397
  75   1.0000      -0.379976       -10.3397
  76   1.0000      -0.372675       -10.1410
  77   1.0000      -0.303732        -8.2650
  78   1.0000      -0.293657        -7.9908
  79   1.0000      -0.283674        -7.7192
  80   1.0000      -0.277886        -7.5617
  81   1.0000      -0.258482        -7.0337
  82   1.0000      -0.251676        -6.8485
  83   1.0000      -0.237576        -6.4648
  84   1.0000      -0.219241        -5.9658
  85   1.0000      -0.199108        -5.4180
  86   1.0000      -0.194193        -5.2842
  87   1.0000      -0.193829        -5.2743
  88   1.0000      -0.191952        -5.2233
  89   1.0000      -0.184311        -5.0153
  90   1.0000      -0.183562        -4.9950
  91   1.0000      -0.176500        -4.8028
  92   1.0000      -0.151232        -4.1152
  93   1.0000      -0.147151        -4.0042
  94   1.0000      -0.141150        -3.8409
  95   1.0000      -0.133344        -3.6285
  96   1.0000      -0.121346        -3.3020
  97   1.0000      -0.097810        -2.6615
  98   1.0000      -0.094870        -2.5816
  99   1.0000      -0.090173        -2.4537
 100   1.0000      -0.083973        -2.2850
 101   1.0000      -0.081693        -2.2230
 102   1.0000      -0.080711        -2.1963
 103   1.0000      -0.070217        -1.9107
 104   1.0000      -0.050841        -1.3835
 105   1.0000      -0.039133        -1.0649
 106   1.0000      -0.038078        -1.0361
 107   1.0000      -0.036480        -0.9927
 108   1.0000      -0.032120        -0.8740
 109   1.0000      -0.014098        -0.3836
 110   1.0000      -0.004931        -0.1342
 111   1.0000      -0.004038        -0.1099
 112   1.0000       0.005895         0.1604
 113   1.0000       0.009891         0.2692
 114   1.0000       0.015676         0.4266
 115   1.0000       0.033478         0.9110
 116   1.0000       0.059732         1.6254
 117   0.0000       0.175179         4.7669
 118   0.0000       0.182111         4.9555
 119   0.0000       0.190838         5.1930
 120   0.0000       0.197354         5.3703
 121   0.0000       0.205612         5.5950

                 SPIN DOWN ORBITALS
  NO   OCC          E(Eh)            E(eV)
   0   1.0000    -196.640886     -5350.8705
   1   1.0000     -88.680601     -2413.1218
   2   1.0000     -88.680598     -2413.1217
   3   1.0000     -88.676442     -2413.0087
   4   1.0000     -88.676416     -2413.0079
   5   1.0000     -88.613214     -2411.2881
   6   1.0000     -88.613172     -2411.2870
   7   1.0000     -88.612239     -2411.2616
   8   1.0000     -88.612167     -2411.2596
   9   1.0000     -22.001858      -598.7010
  10   1.0000     -18.861253      -513.2408
  11   1.0000     -18.518217      -503.9063
  12   1.0000     -18.502095      -503.4676
  13   1.0000     -18.501405      -503.4488
  14   1.0000     -10.023137      -272.7434
  15   1.0000     -10.023113      -272.7428
  16   1.0000     -10.016591      -272.5653
  17   1.0000     -10.016584      -272.5651
  18   1.0000     -10.003366      -272.2054
  19   1.0000      -9.996365      -272.0149
  20   1.0000      -9.993040      -271.9244
  21   1.0000      -9.992323      -271.9049
  22   1.0000      -9.991479      -271.8820
  23   1.0000      -9.990766      -271.8626
  24   1.0000      -7.734076      -210.4549
  25   1.0000      -7.734064      -210.4546
  26   1.0000      -7.730098      -210.3467
  27   1.0000      -7.730079      -210.3462
  28   1.0000      -7.667547      -208.6446
  29   1.0000      -7.667534      -208.6442
  30   1.0000      -7.666648      -208.6201
  31   1.0000      -7.666587      -208.6184
  32   1.0000      -5.699303      -155.0859
  33   1.0000      -5.699298      -155.0858
  34   1.0000      -5.695371      -154.9789
  35   1.0000      -5.695358      -154.9786
  36   1.0000      -5.695345      -154.9782
  37   1.0000      -5.695326      -154.9777
  38   1.0000      -5.691446      -154.8721
  39   1.0000      -5.691430      -154.8717
  40   1.0000      -5.688971      -154.8048
  41   1.0000      -5.688970      -154.8047
  42   1.0000      -5.684859      -154.6929
  43   1.0000      -5.684844      -154.6925
  44   1.0000      -5.632475      -153.2674
  45   1.0000      -5.632457      -153.2669
  46   1.0000      -5.631511      -153.2412
  47   1.0000      -5.631457      -153.2397
  48   1.0000      -5.626217      -153.0971
  49   1.0000      -5.626204      -153.0968
  50   1.0000      -5.625485      -153.0772
  51   1.0000      -5.625470      -153.0768
  52   1.0000      -5.625347      -153.0735
  53   1.0000      -5.625285      -153.0718
  54   1.0000      -5.624607      -153.0533
  55   1.0000      -5.624540      -153.0515
  56   1.0000      -2.366024       -64.3828
  57   1.0000      -1.432709       -38.9860
  58   1.0000      -1.378598       -37.5136
  59   1.0000      -1.377936       -37.4955
  60   1.0000      -0.651490       -17.7279
  61   1.0000      -0.643256       -17.5039
  62   1.0000      -0.626373       -17.0445
  63   1.0000      -0.599208       -16.3053
  64   1.0000      -0.593376       -16.1466
  65   1.0000      -0.584139       -15.8952
  66   1.0000      -0.575294       -15.6546
  67   1.0000      -0.497812       -13.5462
  68   1.0000      -0.497209       -13.5297
  69   1.0000      -0.490732       -13.3535
  70   1.0000      -0.486751       -13.2452
  71   1.0000      -0.429747       -11.6940
  72   1.0000      -0.425026       -11.5655
  73   1.0000      -0.421466       -11.4687
  74   1.0000      -0.409440       -11.1414
  75   1.0000      -0.379947       -10.3389
  76   1.0000      -0.372686       -10.1413
  77   1.0000      -0.303727        -8.2648
  78   1.0000      -0.293642        -7.9904
  79   1.0000      -0.283649        -7.7185
  80   1.0000      -0.277865        -7.5611
  81   1.0000      -0.258203        -7.0261
  82   1.0000      -0.251590        -6.8461
  83   1.0000      -0.237524        -6.4634
  84   1.0000      -0.219230        -5.9655
  85   1.0000      -0.198888        -5.4120
  86   1.0000      -0.194158        -5.2833
  87   1.0000      -0.193564        -5.2672
  88   1.0000      -0.191936        -5.2228
  89   1.0000      -0.184266        -5.0141
  90   1.0000      -0.181943        -4.9509
  91   1.0000      -0.175863        -4.7855
  92   1.0000      -0.150548        -4.0966
  93   1.0000      -0.146849        -3.9960
  94   1.0000      -0.140948        -3.8354
  95   1.0000      -0.133038        -3.6201
  96   1.0000      -0.121175        -3.2973
  97   1.0000      -0.096309        -2.6207
  98   1.0000      -0.094432        -2.5696
  99   1.0000      -0.090278        -2.4566
 100   1.0000      -0.083976        -2.2851
 101   1.0000      -0.082584        -2.2472
 102   1.0000      -0.081262        -2.2113
 103   1.0000      -0.071534        -1.9465
 104   1.0000      -0.046699        -1.2708
 105   1.0000      -0.039290        -1.0691
 106   1.0000      -0.037235        -1.0132
 107   1.0000      -0.035517        -0.9665
 108   1.0000      -0.032099        -0.8735
 109   1.0000      -0.013202        -0.3592
 110   1.0000      -0.006106        -0.1662
 111   1.0000      -0.003156        -0.0859
 112   1.0000       0.006693         0.1821
 113   1.0000       0.010809         0.2941
 114   1.0000       0.033744         0.9182
 115   1.0000       0.058939         1.6038
 116   0.0000       0.174876         4.7586
 117   0.0000       0.182494         4.9659
 118   0.0000       0.185444         5.0462
 119   0.0000       0.192305         5.2329
 120   0.0000       0.197607         5.3772

MULLIKEN ATOMIC CHARGES AND SPIN POPULATIONS
--------------------------------------------
   0 V :    0.446486    1.199070
   1 S :   -0.253064   -0.024445
   2 S :   -0.250174   -0.023598
   3 S :   -0.253200   -0.024371
   4 S :   -0.250598   -0.023526
   5 O :   -0.505597   -0.138808
   6 C :   -0.105444    0.008771
   7 C :   -0.104196    0.008787
   8 C :   -0.115034    0.008975
   9 C :   -0.115232    0.008899
  10 S :   -0.038400   -0.000101
  11 S :   -0.038606   -0.000135
  12 S :   -0.044539   -0.000192
  13 S :   -0.044449   -0.000221
  14 C :   -0.370228    0.000174
  15 C :   -0.339675    0.000278
  16 C :   -0.369243    0.000156
  17 C :   -0.340236    0.000298
  18 C :   -0.098765    0.000216
  19 H :    0.059349   -0.000205
  20 H :    0.191711    0.000022
  21 H :    0.034289    0.000044
  22 H :    0.113884    0.000054
  23 H :    0.190960    0.000023
  24 H :    0.061085   -0.000208
  25 C :   -0.084007    0.000147
  26 H :    0.109259    0.000029
  27 H :    0.140086   -0.000109
  28 H :    0.081046    0.000015
  29 H :    0.043315    0.000037
  30 H :    0.139676   -0.000105
  31 H :    0.109540    0.000027
Sum of atomic charges         :   -2.0000000

LOEWDIN ATOMIC CHARGES AND SPIN POPULATIONS
-------------------------------------------
   0 V :   -0.242257    1.153156
   1 S :    0.088973   -0.016567
   2 S :    0.092841   -0.015950
   3 S :    0.088790   -0.016502
   4 S :    0.092511   -0.015921
   5 O :   -0.350720   -0.124239
   6 C :   -0.548850    0.009918
   7 C :   -0.548348    0.009881
   8 C :   -0.552220    0.009966
   9 C :   -0.552647    0.009985
  10 S :    0.346501   -0.000982
  11 S :    0.346013   -0.001002
  12 S :    0.336723   -0.001042
  13 S :    0.336695   -0.001055
  14 C :   -0.260093    0.000174
  15 C :   -0.296431    0.000168
  16 C :   -0.259442    0.000165
  17 C :   -0.296543    0.000178
  18 C :   -0.159138   -0.000025
  19 H :    0.070485   -0.000147
  20 H :   -0.015511    0.000003
  21 H :    0.055295    0.000020
  22 H :    0.023478    0.000019
  23 H :   -0.014874    0.000004
  24 H :    0.071454   -0.000148
  25 C :   -0.184398   -0.000038
  26 H :    0.043760    0.000009
  27 H :    0.072733   -0.000033
  28 H :    0.051358    0.000011
  29 H :    0.047335    0.000019
  30 H :    0.072874   -0.000033
  31 H :    0.043653    0.000008

  Mayer bond orders larger than 0.100000
B(  0-V ,  1-S ) :   0.7902 B(  0-V ,  2-S ) :   0.7875 B(  0-V ,  3-S ) :   0.7923
B(  0-V ,  4-S ) :   0.7849 B(  0-V ,  5-O ) :   2.1080 B(  1-S ,  8-C ) :   1.1372
B(  2-S ,  6-C ) :   1.1331 B(  3-S ,  9-C ) :   1.1361 B(  4-S ,  7-C ) :   1.1343
B(  6-C ,  7-C ) :   1.5321 B(  6-C , 10-S ) :   0.9419 B(  7-C , 11-S ) :   0.9421
B(  8-C ,  9-C ) :   1.5199 B(  8-C , 13-S ) :   0.9532 B(  9-C , 12-S ) :   0.9532
B( 10-S , 16-C ) :   1.0099 B( 11-S , 14-C ) :   1.0092 B( 12-S , 15-C ) :   1.0049
B( 13-S , 17-C ) :   1.0053 B( 14-C , 18-C ) :   0.8763 B( 14-C , 23-H ) :   0.9535
B( 14-C , 24-H ) :   0.9435 B( 15-C , 25-C ) :   0.8782 B( 15-C , 30-H ) :   0.9731
B( 15-C , 31-H ) :   0.9699 B( 16-C , 18-C ) :   0.8763 B( 16-C , 19-H ) :   0.9428
B( 16-C , 20-H ) :   0.9531 B( 17-C , 25-C ) :   0.8778 B( 17-C , 26-H ) :   0.9698
B( 17-C , 27-H ) :   0.9731 B( 18-C , 21-H ) :   0.9532 B( 18-C , 22-H ) :   0.9654
B( 25-C , 28-H ) :   0.9736 B( 25-C , 29-H ) :   0.9525

FINAL SINGLE POINT ENERGY     -4592.513326233779

DIPOLE MOMENT
-------------
                                X             Y             Z
Electronic contribution:    -12.29876      24.32699       3.23941
Nuclear contribution   :     13.52185     -26.80577      -3.28885
                        -----------------------------------------
Total Dipole Moment    :      1.22309      -2.47878      -0.04944
                        -----------------------------------------
Magnitude (a.u.)       :      2.76455
Magnitude (Debye)      :      7.02693

Rotational constants in cm-1:     0.012771     0.002548     0.002431
Rotational constants in MHz :   382.877661    76.380079    72.877399

                             ****ORCA TERMINATED NORMALLY****
TOTAL RUN TIME: 0 days 0 hours 43 minutes 4 seconds 342 msec
