                         Program Version 5.0.4 -  RELEASE  -
|  1> ! nofrozencore ReducedPop printbasis
|  2> ! B3LYP TZVP
|  3>
|  4> %basis
|  5> newgto V "CP(PPP)" end
|  6> end
|  7>
|  8> %pal
|  9> nprocs 4
| 10> end
| 11>
| 12> % sym SymThresh 1e-2 end
| 13> * xyz -2 2
| 14> V -0.1290634325878699 -0.4222737238346026 1.0278296022325364
| 15> S 2.236126295633953 0.5201113600346384 0.7593912309575961
| 16> S -0.8371745810553617 1.8223115723736785 1.1594950741856347
| 17> S 1.0098971026353245 -2.1337261430243486 -0.5003096355490412
| 18> S -2.1209033610943147 -0.9562360663666449 -0.12446070171136818
| 19> O -0.1351746503713589 -1.0990302831955838 2.477111463288242
| 20> C -2.625987499799662 1.6879512486771724 0.7349868971104833
| 21> C -3.1592036176151894 0.5316813988987152 0.19860657455936498
| 22> C 3.1690071292328637 -0.7420135918283501 0.1711727138105665
| 23> C 2.6559437495357003 -1.8515917042992087 -0.3554005585963523
| 24> S -3.7019256353620427 3.207254823589961 1.1600307048747742
| 25> S -5.022457478157372 0.34537721795437903 -0.172896483437895
| 26> S 3.5860713611204478 -3.0229592714023554 -1.1062499831260033
| 27> S 4.805416551257285 -0.3874865086103178 0.14532023066843783
| 28> C -5.127221716444227 1.564535285376349 -1.5738109998449819
| 29> C 4.349936222061507 -2.327263833467824 -2.628205588331876
| 30> C -4.1419588286558415 3.7042244361991807 -0.5775374571530366
| 31> C 5.360023264990521 -0.1450538670969607 -1.591478053059663
| 32> C -5.368974898866764 3.028638271916174 -1.19609602904459
| 33> H -3.2495606468838703 3.46727767550664 -1.17899584297569
| 34> H -4.266721140459312 4.803020360080204 -0.5792977758464288
| 35> H -5.610704012678282 3.572173439671582 -2.1241992442027957
| 36> H -6.2373408346531205 3.120890977561358 -0.5352849768299434
| 37> H -5.921139685402617 1.2079279712705673 -2.255942964662087
| 38> H -4.16531168593256 1.475891312855869 -2.103967479015832
| 39> C 5.558186806235669 -1.4268163508484686 -2.3936256533667057
| 40> H 6.357858756855815 0.32946422842658 -1.45060314255868
| 41> H 4.6998253602823015 0.58661843038919 -2.103791447068853
| 42> H 6.313342622997446 -2.025342495254124 -1.869841312914689
| 43> H 5.987300497746753 -1.159647096968462 -3.3738346582676666
| 44> H 3.5720744447450983 -1.8484930988186896 -3.2604311106952837
| 45> H 4.70261255191489 -3.2459692405912617 -3.1503087307973345
| 46> *
| 47>
| 48> % eprnmr
| 49> gtensor true
| 50> Nuclei = all H {aiso,adip,aorb,fgrad,rho}
| 51> Nuclei = all V {aiso,adip,aorb,fgrad,rho}
| 52> end
| 53>
| 54>                          ****END OF INPUT****

CARTESIAN COORDINATES (ANGSTROEM)
---------------------------------
  V     -0.129208   -0.422713    1.028923
  S      2.235982    0.519672    0.760484
  S     -0.837319    1.821872    1.160588
  S      1.009753   -2.134166   -0.499217
  S     -2.121048   -0.956676   -0.123368
  O     -0.135319   -1.099470    2.478204
  C     -2.626132    1.687512    0.736080
  C     -3.159348    0.531242    0.199699
  C      3.168863   -0.742453    0.172266
  C      2.655799   -1.852031   -0.354308
  S     -3.702070    3.206815    1.161124
  S     -5.022602    0.344938   -0.171804
  S      3.585927   -3.023399   -1.105157
  S      4.805272   -0.387926    0.146413
  C     -5.127366    1.564096   -1.572718
  C      4.349792   -2.327703   -2.627113
  C     -4.142103    3.703785   -0.576445
  C      5.359879   -0.145493   -1.590385
  C     -5.369119    3.028199   -1.195003
  H     -3.249705    3.466838   -1.177903
  H     -4.266866    4.802581   -0.578205
  H     -5.610848    3.571734   -2.123106
  H     -6.237485    3.120452   -0.534192
  H     -5.921284    1.207489   -2.254850
  H     -4.165456    1.475452   -2.102875
  C      5.558042   -1.427256   -2.392533
  H      6.357714    0.329025   -1.449510
  H      4.699681    0.586179   -2.102699
  H      6.313198   -2.025782   -1.868748
  H      5.987156   -1.160087   -3.372742
  H      3.571930   -1.848933   -3.259338
  H      4.702468   -3.246409   -3.149216

 Total Charge           Charge          ....   -2
 Multiplicity           Mult            ....    2
 Number of Electrons    NEL             ....  233
 Basis Dimension        Dim             ....  517

ORBITAL ENERGIES
----------------
                 SPIN UP ORBITALS
  NO   OCC          E(Eh)            E(eV)
   0   1.0000    -196.640774     -5350.8675
   1   1.0000     -88.687434     -2413.3078
   2   1.0000     -88.687378     -2413.3062
   3   1.0000     -88.662310     -2412.6241
   4   1.0000     -88.662196     -2412.6210
   5   1.0000     -88.622442     -2411.5393
   6   1.0000     -88.622437     -2411.5391
   7   1.0000     -88.602285     -2410.9907
   8   1.0000     -88.602190     -2410.9882
   9   1.0000     -22.016453      -599.0981
  10   1.0000     -18.857531      -513.1395
  11   1.0000     -18.523277      -504.0440
  12   1.0000     -18.517494      -503.8866
  13   1.0000     -18.517488      -503.8865
  14   1.0000     -10.022554      -272.7276
  15   1.0000     -10.022511      -272.7264
  16   1.0000     -10.012684      -272.4590
  17   1.0000     -10.012652      -272.4581
  18   1.0000     -10.012100      -272.4431
  19   1.0000     -10.011487      -272.4264
  20   1.0000     -10.009798      -272.3804
  21   1.0000      -9.999050      -272.0880
  22   1.0000      -9.967114      -271.2190
  23   1.0000      -9.966223      -271.1947
  24   1.0000      -7.739192      -210.5941
  25   1.0000      -7.739150      -210.5930
  26   1.0000      -7.719116      -210.0478
  27   1.0000      -7.719019      -210.0452
  28   1.0000      -7.675763      -208.8681
  29   1.0000      -7.675711      -208.8667
  30   1.0000      -7.658913      -208.4096
  31   1.0000      -7.658850      -208.4079
  32   1.0000      -5.704405      -155.2247
  33   1.0000      -5.704361      -155.2236
  34   1.0000      -5.701089      -155.1345
  35   1.0000      -5.701041      -155.1332
  36   1.0000      -5.693809      -154.9364
  37   1.0000      -5.693771      -154.9354
  38   1.0000      -5.684326      -154.6784
  39   1.0000      -5.684228      -154.6757
  40   1.0000      -5.679699      -154.5525
  41   1.0000      -5.679597      -154.5497
  42   1.0000      -5.673985      -154.3970
  43   1.0000      -5.673892      -154.3944
  44   1.0000      -5.641226      -153.5056
  45   1.0000      -5.641194      -153.5047
  46   1.0000      -5.634012      -153.3093
  47   1.0000      -5.633963      -153.3079
  48   1.0000      -5.633495      -153.2952
  49   1.0000      -5.633443      -153.2938
  50   1.0000      -5.623027      -153.0103
  51   1.0000      -5.622958      -153.0085
  52   1.0000      -5.617401      -152.8573
  53   1.0000      -5.617334      -152.8554
  54   1.0000      -5.617119      -152.8496
  55   1.0000      -5.617051      -152.8477
  56   1.0000      -2.410347       -65.5889
  57   1.0000      -1.451502       -39.4974
  58   1.0000      -1.440321       -39.1931
  59   1.0000      -1.439101       -39.1599
  60   1.0000      -0.655544       -17.8383
  61   1.0000      -0.641662       -17.4605
  62   1.0000      -0.618427       -16.8282
  63   1.0000      -0.607422       -16.5288
  64   1.0000      -0.584340       -15.9007
  65   1.0000      -0.580921       -15.8077
  66   1.0000      -0.571272       -15.5451
  67   1.0000      -0.504760       -13.7352
  68   1.0000      -0.492850       -13.4111
  69   1.0000      -0.490925       -13.3588
  70   1.0000      -0.473788       -12.8924
  71   1.0000      -0.424673       -11.5559
  72   1.0000      -0.418955       -11.4003
  73   1.0000      -0.413020       -11.2388
  74   1.0000      -0.408080       -11.1044
  75   1.0000      -0.383353       -10.4316
  76   1.0000      -0.366783        -9.9807
  77   1.0000      -0.293681        -7.9915
  78   1.0000      -0.293131        -7.9765
  79   1.0000      -0.277984        -7.5643
  80   1.0000      -0.272688        -7.4202
  81   1.0000      -0.260612        -7.0916
  82   1.0000      -0.255337        -6.9481
  83   1.0000      -0.239727        -6.5233
  84   1.0000      -0.237615        -6.4658
  85   1.0000      -0.198433        -5.3996
  86   1.0000      -0.196247        -5.3402
  87   1.0000      -0.195338        -5.3154
  88   1.0000      -0.185878        -5.0580
  89   1.0000      -0.184961        -5.0331
  90   1.0000      -0.180601        -4.9144
  91   1.0000      -0.178004        -4.8437
  92   1.0000      -0.152954        -4.1621
  93   1.0000      -0.152343        -4.1455
  94   1.0000      -0.150096        -4.0843
  95   1.0000      -0.140063        -3.8113
  96   1.0000      -0.139312        -3.7909
  97   1.0000      -0.099034        -2.6949
  98   1.0000      -0.095678        -2.6035
  99   1.0000      -0.089414        -2.4331
 100   1.0000      -0.081959        -2.2302
 101   1.0000      -0.081129        -2.2076
 102   1.0000      -0.080567        -2.1923
 103   1.0000      -0.068773        -1.8714
 104   1.0000      -0.049452        -1.3456
 105   1.0000      -0.042010        -1.1432
 106   1.0000      -0.040981        -1.1151
 107   1.0000      -0.034698        -0.9442
 108   1.0000      -0.034317        -0.9338
 109   1.0000      -0.012081        -0.3288
 110   1.0000      -0.008360        -0.2275
 111   1.0000      -0.005216        -0.1419
 112   1.0000       0.002782         0.0757
 113   1.0000       0.017348         0.4721
 114   1.0000       0.025609         0.6969
 115   1.0000       0.028543         0.7767
 116   1.0000       0.063696         1.7332
 117   0.0000       0.182618         4.9693
 118   0.0000       0.189097         5.1456
 119   0.0000       0.194744         5.2992
 120   0.0000       0.198897         5.4123
 121   0.0000       0.204598         5.5674

                 SPIN DOWN ORBITALS
  NO   OCC          E(Eh)            E(eV)
   0   1.0000    -196.640909     -5350.8712
   1   1.0000     -88.687438     -2413.3079
   2   1.0000     -88.687382     -2413.3063
   3   1.0000     -88.662333     -2412.6247
   4   1.0000     -88.662220     -2412.6216
   5   1.0000     -88.622610     -2411.5438
   6   1.0000     -88.622604     -2411.5437
   7   1.0000     -88.602457     -2410.9954
   8   1.0000     -88.602362     -2410.9928
   9   1.0000     -22.001812      -598.6997
  10   1.0000     -18.861116      -513.2370
  11   1.0000     -18.518129      -503.9039
  12   1.0000     -18.501987      -503.4647
  13   1.0000     -18.501446      -503.4499
  14   1.0000     -10.022547      -272.7274
  15   1.0000     -10.022505      -272.7262
  16   1.0000     -10.012683      -272.4589
  17   1.0000     -10.012652      -272.4581
  18   1.0000     -10.011631      -272.4303
  19   1.0000     -10.011020      -272.4137
  20   1.0000     -10.009795      -272.3804
  21   1.0000      -9.999053      -272.0881
  22   1.0000      -9.966995      -271.2157
  23   1.0000      -9.966107      -271.1915
  24   1.0000      -7.739196      -210.5942
  25   1.0000      -7.739154      -210.5931
  26   1.0000      -7.719141      -210.0485
  27   1.0000      -7.719043      -210.0458
  28   1.0000      -7.675912      -208.8722
  29   1.0000      -7.675861      -208.8708
  30   1.0000      -7.659077      -208.4141
  31   1.0000      -7.659014      -208.4124
  32   1.0000      -5.704412      -155.2250
  33   1.0000      -5.704369      -155.2238
  34   1.0000      -5.701100      -155.1348
  35   1.0000      -5.701052      -155.1335
  36   1.0000      -5.693805      -154.9363
  37   1.0000      -5.693768      -154.9353
  38   1.0000      -5.684347      -154.6790
  39   1.0000      -5.684250      -154.6763
  40   1.0000      -5.679726      -154.5532
  41   1.0000      -5.679624      -154.5504
  42   1.0000      -5.674031      -154.3982
  43   1.0000      -5.673938      -154.3957
  44   1.0000      -5.641449      -153.5116
  45   1.0000      -5.641416      -153.5107
  46   1.0000      -5.634389      -153.3195
  47   1.0000      -5.634342      -153.3182
  48   1.0000      -5.633639      -153.2991
  49   1.0000      -5.633587      -153.2977
  50   1.0000      -5.623191      -153.0148
  51   1.0000      -5.623123      -153.0130
  52   1.0000      -5.617844      -152.8693
  53   1.0000      -5.617776      -152.8674
  54   1.0000      -5.617255      -152.8533
  55   1.0000      -5.617186      -152.8514
  56   1.0000      -2.366219       -64.3881
  57   1.0000      -1.432509       -38.9805
  58   1.0000      -1.378771       -37.5183
  59   1.0000      -1.378640       -37.5147
  60   1.0000      -0.655547       -17.8383
  61   1.0000      -0.641593       -17.4586
  62   1.0000      -0.626123       -17.0377
  63   1.0000      -0.607448       -16.5295
  64   1.0000      -0.584413       -15.9027
  65   1.0000      -0.580383       -15.7930
  66   1.0000      -0.571215       -15.5435
  67   1.0000      -0.504928       -13.7398
  68   1.0000      -0.492951       -13.4139
  69   1.0000      -0.490908       -13.3583
  70   1.0000      -0.473593       -12.8871
  71   1.0000      -0.424835       -11.5603
  72   1.0000      -0.419376       -11.4118
  73   1.0000      -0.413044       -11.2395
  74   1.0000      -0.408144       -11.1062
  75   1.0000      -0.383259       -10.4290
  76   1.0000      -0.366852        -9.9826
  77   1.0000      -0.293704        -7.9921
  78   1.0000      -0.293096        -7.9755
  79   1.0000      -0.277922        -7.5627
  80   1.0000      -0.272696        -7.4204
  81   1.0000      -0.260293        -7.0829
  82   1.0000      -0.255341        -6.9482
  83   1.0000      -0.239675        -6.5219
  84   1.0000      -0.237374        -6.4593
  85   1.0000      -0.198223        -5.3939
  86   1.0000      -0.196182        -5.3384
  87   1.0000      -0.195288        -5.3141
  88   1.0000      -0.184955        -5.0329
  89   1.0000      -0.184745        -5.0272
  90   1.0000      -0.180433        -4.9098
  91   1.0000      -0.176973        -4.8157
  92   1.0000      -0.152013        -4.1365
  93   1.0000      -0.151744        -4.1292
  94   1.0000      -0.150020        -4.0823
  95   1.0000      -0.139903        -3.8069
  96   1.0000      -0.139001        -3.7824
  97   1.0000      -0.097429        -2.6512
  98   1.0000      -0.095215        -2.5909
  99   1.0000      -0.089440        -2.4338
 100   1.0000      -0.082387        -2.2419
 101   1.0000      -0.081471        -2.2169
 102   1.0000      -0.081204        -2.2097
 103   1.0000      -0.069286        -1.8854
 104   1.0000      -0.047257        -1.2859
 105   1.0000      -0.040941        -1.1141
 106   1.0000      -0.040043        -1.0896
 107   1.0000      -0.034723        -0.9449
 108   1.0000      -0.033518        -0.9121
 109   1.0000      -0.010912        -0.2969
 110   1.0000      -0.006445        -0.1754
 111   1.0000      -0.006324        -0.1721
 112   1.0000       0.002518         0.0685
 113   1.0000       0.027009         0.7350
 114   1.0000       0.028718         0.7814
 115   1.0000       0.062982         1.7138
 116   0.0000       0.181516         4.9393
 117   0.0000       0.184217         5.0128
 118   0.0000       0.190170         5.1748
 119   0.0000       0.195230         5.3125
 120   0.0000       0.199246         5.4218

MULLIKEN ATOMIC CHARGES AND SPIN POPULATIONS
--------------------------------------------
   0 V :    0.454565    1.199798
   1 S :   -0.265856   -0.024881
   2 S :   -0.239229   -0.027153
   3 S :   -0.266315   -0.024969
   4 S :   -0.239722   -0.027204
   5 O :   -0.508305   -0.138788
   6 C :   -0.108820    0.018145
   7 C :   -0.107910    0.017865
   8 C :   -0.132585    0.003511
   9 C :   -0.133291    0.003425
  10 S :   -0.061352    0.000920
  11 S :   -0.061230    0.000837
  12 S :   -0.023930   -0.001397
  13 S :   -0.024082   -0.001410
  14 C :   -0.363574    0.000550
  15 C :   -0.284893    0.000103
  16 C :   -0.362205    0.000520
  17 C :   -0.284532    0.000115
  18 C :   -0.061493    0.000067
  19 H :    0.158387   -0.000017
  20 H :    0.109405    0.000077
  21 H :    0.049845    0.000134
  22 H :    0.085663    0.000087
  23 H :    0.109521    0.000077
  24 H :    0.158988   -0.000026
  25 C :   -0.127368   -0.000033
  26 H :    0.084032    0.000020
  27 H :    0.124792   -0.000158
  28 H :    0.073651   -0.000017
  29 H :    0.038950   -0.000057
  30 H :    0.124838   -0.000157
  31 H :    0.084051    0.000018
Sum of atomic charges         :   -2.0000000

LOEWDIN ATOMIC CHARGES AND SPIN POPULATIONS
-------------------------------------------
   0 V :   -0.241912    1.152682
   1 S :    0.100861   -0.018937
   2 S :    0.095001   -0.016395
   3 S :    0.100096   -0.019028
   4 S :    0.093835   -0.016531
   5 O :   -0.353451   -0.124304
   6 C :   -0.490434    0.018881
   7 C :   -0.489980    0.018541
   8 C :   -0.641283    0.004459
   9 C :   -0.641838    0.004401
  10 S :    0.295111    0.000045
  11 S :    0.295139   -0.000004
  12 S :    0.388869   -0.002195
  13 S :    0.388652   -0.002203
  14 C :   -0.294103    0.000324
  15 C :   -0.299701   -0.000009
  16 C :   -0.294080    0.000311
  17 C :   -0.299646   -0.000002
  18 C :   -0.183461    0.000033
  19 H :    0.072431    0.000047
  20 H :    0.048058    0.000054
  21 H :    0.049584    0.000069
  22 H :    0.054576    0.000056
  23 H :    0.048086    0.000054
  24 H :    0.072564    0.000044
  25 C :   -0.191424   -0.000157
  26 H :    0.050700   -0.000003
  27 H :    0.060194   -0.000086
  28 H :    0.053020   -0.000017
  29 H :    0.043576   -0.000041
  30 H :    0.060231   -0.000086
  31 H :    0.050727   -0.000004

  Mayer bond orders larger than 0.100000
B(  0-V ,  1-S ) :   0.7393 B(  0-V ,  2-S ) :   0.8357 B(  0-V ,  3-S ) :   0.7398
B(  0-V ,  4-S ) :   0.8313 B(  0-V ,  5-O ) :   2.1046 B(  1-S ,  8-C ) :   1.2172
B(  2-S ,  6-C ) :   1.0640 B(  3-S ,  9-C ) :   1.2175 B(  4-S ,  7-C ) :   1.0668
B(  6-C ,  7-C ) :   1.6039 B(  6-C , 10-S ) :   0.8870 B(  7-C , 11-S ) :   0.8871
B(  8-C ,  9-C ) :   1.3619 B(  8-C , 13-S ) :   1.0833 B(  9-C , 12-S ) :   1.0840
B( 10-S , 16-C ) :   1.0181 B( 11-S , 14-C ) :   1.0175 B( 12-S , 15-C ) :   0.9693
B( 13-S , 17-C ) :   0.9697 B( 14-C , 18-C ) :   0.8680 B( 14-C , 23-H ) :   0.9662
B( 14-C , 24-H ) :   0.9830 B( 15-C , 25-C ) :   0.8891 B( 15-C , 30-H ) :   0.9616
B( 15-C , 31-H ) :   0.9731 B( 16-C , 18-C ) :   0.8684 B( 16-C , 19-H ) :   0.9829
B( 16-C , 20-H ) :   0.9661 B( 17-C , 25-C ) :   0.8893 B( 17-C , 26-H ) :   0.9732
B( 17-C , 27-H ) :   0.9615 B( 18-C , 21-H ) :   0.9572 B( 18-C , 22-H ) :   0.9673
B( 25-C , 28-H ) :   0.9815 B( 25-C , 29-H ) :   0.9468

FINAL SINGLE POINT ENERGY     -4592.672780289481

DIPOLE MOMENT
-------------
                                X             Y             Z
Electronic contribution:     -2.97517     -10.17908      24.56297
Nuclear contribution   :      2.64243      11.59888     -27.25036
                        -----------------------------------------
Total Dipole Moment    :     -0.33274       1.41980      -2.68738
                        -----------------------------------------
Magnitude (a.u.)       :      3.05754
Magnitude (Debye)      :      7.77166

Rotational constants in cm-1:     0.012811     0.002550     0.002434
Rotational constants in MHz :   384.054480    76.445655    72.971050

                             ****ORCA TERMINATED NORMALLY****
TOTAL RUN TIME: 0 days 0 hours 43 minutes 30 seconds 233 msec
