                         Program Version 5.0.4 -  RELEASE  -
|  1> ! nofrozencore ReducedPop printbasis
|  2> ! B3LYP TZVP
|  3>
|  4> %basis
|  5> newgto V "CP(PPP)" end
|  6> end
|  7>
|  8> %pal
|  9> nprocs 8
| 10> end
| 11>
| 12> % sym SymThresh 1e-2 end
| 13> * xyz -2 2
| 14> V 0.8465126176789853 0.5648621636365972 -0.45677915605361646
| 15> S 1.68544154735081 -0.5879527539429416 1.4818387909234991
| 16> S 0.7653000650604482 -1.6841929593658975 -1.530295568696392
| 17> S -0.22342584237694293 2.04706881560097 1.2399940815803085
| 18> S -1.1094663494344728 0.9710359598447547 -1.7983677119326624
| 19> O 2.063975579297357 1.3681460235238476 -1.1062780395515512
| 20> C -0.352200889290981 -1.4676822345472935 -2.8673738905770394
| 21> C -1.0929751533936591 -0.33465027433312977 -3.010915363905779
| 22> C 1.4533207506379104 0.571770687618339 2.8152997678221965
| 23> C 0.6080838245602469 1.6358869083799799 2.730491552915001
| 24> S -0.35353792100582154 -2.8596987783735073 -4.029476801812233
| 25> S -2.2114210337349696 -0.14719800462238042 -4.402622020253243
| 26> S 0.26327110447611957 2.7990349294735624 4.078193635701945
| 27> S 2.2976602501121324 0.20286944526665224 4.356377086203725
| 28> C -3.383229817608171 -1.564985728780757 -4.098790726512094
| 29> C -0.7927391115353565 1.8723902224913853 5.26071645081179
| 30> C -1.9645329066584976 -3.704406925787295 -3.7726161673570826
| 31> C 0.8407792351060239 -0.12574247590894688 5.4722202917779015
| 32> C -3.060378643758222 -2.999814017795347 -4.554516586511474
| 33> H -2.178139091339695 -3.75437910096778 -2.702159800539792
| 34> H -1.819290153046419 -4.725924739750006 -4.1410408164198484
| 35> H -4.0009865638300575 -3.5732827340565003 -4.463403357510842
| 36> H -2.7875427998492888 -2.9976706707602623 -5.6160773946614295
| 37> H -4.309048302786629 -1.2549607403950223 -4.595810983833958
| 38> H -3.5704220562267666 -1.5546147443570435 -3.0224735092118036
| 39> C 0.06955358662002548 1.011400724389229 6.1676815833779255
| 40> H 1.2473378179737256 -0.7793166110341886 6.252098898157701
| 41> H 0.1518676947430983 -0.7240173797753459 4.871174558403616
| 42> H 0.7725070262169679 1.6614480569786936 6.701389672555099
| 43> H -0.5688808586933637 0.529583089747701 6.930989679068538
| 44> H -1.5330319021441345 1.2907770275604853 4.705614942227153
| 45> H -1.322169982828209 2.637740497471854 5.839289790257544
| 46> *
| 47>
| 48> % eprnmr
| 49> gtensor true
| 50> Nuclei = all H {aiso,adip,aorb,fgrad,rho}
| 51> Nuclei = all V {aiso,adip,aorb,fgrad,rho}
| 52> end
| 53>
| 54>                          ****END OF INPUT****

CARTESIAN COORDINATES (ANGSTROEM)
---------------------------------
  V      0.847394    0.565429   -0.457337
  S      1.686322   -0.587386    1.481281
  S      0.766181   -1.683626   -1.530853
  S     -0.222545    2.047636    1.239436
  S     -1.108585    0.971603   -1.798926
  O      2.064856    1.368713   -1.106836
  C     -0.351320   -1.467115   -2.867932
  C     -1.092094   -0.334083   -3.011473
  C      1.454202    0.572338    2.814742
  C      0.608965    1.636454    2.729934
  S     -0.352657   -2.859132   -4.030035
  S     -2.210540   -0.146631   -4.403180
  S      0.264152    2.799602    4.077636
  S      2.298541    0.203436    4.355819
  C     -3.382349   -1.564419   -4.099349
  C     -0.791858    1.872957    5.260159
  C     -1.963652   -3.703840   -3.773174
  C      0.841660   -0.125176    5.471662
  C     -3.059498   -2.999247   -4.555074
  H     -2.177258   -3.753812   -2.702718
  H     -1.818409   -4.725358   -4.141599
  H     -4.000106   -3.572716   -4.463961
  H     -2.786662   -2.997104   -5.616635
  H     -4.308167   -1.254394   -4.596369
  H     -3.569541   -1.554048   -3.023031
  C      0.070434    1.011968    6.167124
  H      1.248219   -0.778750    6.251541
  H      0.152749   -0.723450    4.870617
  H      0.773388    1.662015    6.700832
  H     -0.568000    0.530150    6.930432
  H     -1.532151    1.291344    4.705057
  H     -1.321289    2.638307    5.838732

 Total Charge           Charge          ....   -2
 Multiplicity           Mult            ....    2
 Number of Electrons    NEL             ....  233
 Basis Dimension        Dim             ....  517

ORBITAL ENERGIES
----------------
                 SPIN UP ORBITALS
  NO   OCC          E(Eh)            E(eV)
   0   1.0000    -196.639786     -5350.8406
   1   1.0000     -88.678082     -2413.0533
   2   1.0000     -88.678042     -2413.0522
   3   1.0000     -88.675183     -2412.9744
   4   1.0000     -88.675073     -2412.9714
   5   1.0000     -88.614167     -2411.3141
   6   1.0000     -88.614152     -2411.3137
   7   1.0000     -88.609828     -2411.1960
   8   1.0000     -88.609804     -2411.1954
   9   1.0000     -22.015620      -599.0755
  10   1.0000     -18.857003      -513.1251
  11   1.0000     -18.522440      -504.0212
  12   1.0000     -18.516683      -503.8646
  13   1.0000     -18.516618      -503.8628
  14   1.0000     -10.016444      -272.5613
  15   1.0000     -10.016383      -272.5596
  16   1.0000     -10.015051      -272.5234
  17   1.0000     -10.014946      -272.5205
  18   1.0000     -10.005492      -272.2633
  19   1.0000     -10.005444      -272.2620
  20   1.0000      -9.992084      -271.8984
  21   1.0000      -9.992071      -271.8981
  22   1.0000      -9.991282      -271.8766
  23   1.0000      -9.991252      -271.8758
  24   1.0000      -7.731423      -210.3827
  25   1.0000      -7.731388      -210.3818
  26   1.0000      -7.729065      -210.3185
  27   1.0000      -7.728950      -210.3154
  28   1.0000      -7.668464      -208.6695
  29   1.0000      -7.668460      -208.6694
  30   1.0000      -7.664414      -208.5593
  31   1.0000      -7.664368      -208.5581
  32   1.0000      -5.696697      -155.0150
  33   1.0000      -5.696664      -155.0141
  34   1.0000      -5.694308      -154.9500
  35   1.0000      -5.694185      -154.9466
  36   1.0000      -5.692767      -154.9081
  37   1.0000      -5.692730      -154.9071
  38   1.0000      -5.690432      -154.8445
  39   1.0000      -5.690325      -154.8416
  40   1.0000      -5.686224      -154.7300
  41   1.0000      -5.686190      -154.7291
  42   1.0000      -5.683734      -154.6623
  43   1.0000      -5.683624      -154.6593
  44   1.0000      -5.633471      -153.2945
  45   1.0000      -5.633462      -153.2943
  46   1.0000      -5.629115      -153.1760
  47   1.0000      -5.629074      -153.1749
  48   1.0000      -5.626844      -153.1142
  49   1.0000      -5.626838      -153.1140
  50   1.0000      -5.626375      -153.1015
  51   1.0000      -5.626366      -153.1012
  52   1.0000      -5.622909      -153.0071
  53   1.0000      -5.622879      -153.0063
  54   1.0000      -5.622437      -152.9943
  55   1.0000      -5.622398      -152.9932
  56   1.0000      -2.409411       -65.5634
  57   1.0000      -1.450765       -39.4773
  58   1.0000      -1.439269       -39.1645
  59   1.0000      -1.438124       -39.1334
  60   1.0000      -0.643798       -17.5186
  61   1.0000      -0.643728       -17.5167
  62   1.0000      -0.618065       -16.8184
  63   1.0000      -0.594244       -16.1702
  64   1.0000      -0.593809       -16.1584
  65   1.0000      -0.574173       -15.6241
  66   1.0000      -0.574163       -15.6238
  67   1.0000      -0.491042       -13.3619
  68   1.0000      -0.489646       -13.3239
  69   1.0000      -0.486710       -13.2441
  70   1.0000      -0.486099       -13.2274
  71   1.0000      -0.423287       -11.5182
  72   1.0000      -0.420573       -11.4444
  73   1.0000      -0.411888       -11.2081
  74   1.0000      -0.406930       -11.0731
  75   1.0000      -0.376209       -10.2372
  76   1.0000      -0.372978       -10.1493
  77   1.0000      -0.292555        -7.9608
  78   1.0000      -0.292331        -7.9547
  79   1.0000      -0.278652        -7.5825
  80   1.0000      -0.278583        -7.5806
  81   1.0000      -0.258931        -7.0459
  82   1.0000      -0.254280        -6.9193
  83   1.0000      -0.241685        -6.5766
  84   1.0000      -0.238997        -6.5035
  85   1.0000      -0.196533        -5.3479
  86   1.0000      -0.196060        -5.3351
  87   1.0000      -0.191542        -5.2121
  88   1.0000      -0.188264        -5.1229
  89   1.0000      -0.184198        -5.0123
  90   1.0000      -0.183790        -5.0012
  91   1.0000      -0.178842        -4.8665
  92   1.0000      -0.153151        -4.1675
  93   1.0000      -0.146797        -3.9946
  94   1.0000      -0.143911        -3.9160
  95   1.0000      -0.142221        -3.8700
  96   1.0000      -0.141372        -3.8469
  97   1.0000      -0.097322        -2.6483
  98   1.0000      -0.096994        -2.6393
  99   1.0000      -0.089237        -2.4283
 100   1.0000      -0.084716        -2.3052
 101   1.0000      -0.080233        -2.1832
 102   1.0000      -0.079963        -2.1759
 103   1.0000      -0.069511        -1.8915
 104   1.0000      -0.050353        -1.3702
 105   1.0000      -0.037908        -1.0315
 106   1.0000      -0.037884        -1.0309
 107   1.0000      -0.035396        -0.9632
 108   1.0000      -0.031905        -0.8682
 109   1.0000      -0.013530        -0.3682
 110   1.0000      -0.003895        -0.1060
 111   1.0000      -0.003551        -0.0966
 112   1.0000       0.006314         0.1718
 113   1.0000       0.011236         0.3057
 114   1.0000       0.016609         0.4520
 115   1.0000       0.034405         0.9362
 116   1.0000       0.060186         1.6377
 117   0.0000       0.186656         5.0792
 118   0.0000       0.193318         5.2604
 119   0.0000       0.196957         5.3595
 120   0.0000       0.197600         5.3770
 121   0.0000       0.211332         5.7506

                 SPIN DOWN ORBITALS
  NO   OCC          E(Eh)            E(eV)
   0   1.0000    -196.639927     -5350.8444
   1   1.0000     -88.678093     -2413.0536
   2   1.0000     -88.678054     -2413.0525
   3   1.0000     -88.675198     -2412.9748
   4   1.0000     -88.675088     -2412.9718
   5   1.0000     -88.614322     -2411.3183
   6   1.0000     -88.614307     -2411.3179
   7   1.0000     -88.609993     -2411.2005
   8   1.0000     -88.609970     -2411.1999
   9   1.0000     -22.000966      -598.6767
  10   1.0000     -18.860581      -513.2225
  11   1.0000     -18.517315      -503.8818
  12   1.0000     -18.501183      -503.4428
  13   1.0000     -18.500523      -503.4248
  14   1.0000     -10.016442      -272.5612
  15   1.0000     -10.016381      -272.5596
  16   1.0000     -10.015045      -272.5232
  17   1.0000     -10.014940      -272.5204
  18   1.0000     -10.005492      -272.2633
  19   1.0000     -10.005444      -272.2620
  20   1.0000      -9.991799      -271.8907
  21   1.0000      -9.991785      -271.8903
  22   1.0000      -9.991049      -271.8703
  23   1.0000      -9.991021      -271.8695
  24   1.0000      -7.731435      -210.3830
  25   1.0000      -7.731400      -210.3821
  26   1.0000      -7.729080      -210.3190
  27   1.0000      -7.728966      -210.3158
  28   1.0000      -7.668607      -208.6734
  29   1.0000      -7.668603      -208.6733
  30   1.0000      -7.664569      -208.5635
  31   1.0000      -7.664523      -208.5623
  32   1.0000      -5.696712      -155.0154
  33   1.0000      -5.696679      -155.0145
  34   1.0000      -5.694327      -154.9505
  35   1.0000      -5.694203      -154.9472
  36   1.0000      -5.692785      -154.9085
  37   1.0000      -5.692748      -154.9075
  38   1.0000      -5.690454      -154.8451
  39   1.0000      -5.690347      -154.8422
  40   1.0000      -5.686237      -154.7304
  41   1.0000      -5.686202      -154.7294
  42   1.0000      -5.683754      -154.6628
  43   1.0000      -5.683645      -154.6599
  44   1.0000      -5.633649      -153.2994
  45   1.0000      -5.633641      -153.2992
  46   1.0000      -5.629283      -153.1806
  47   1.0000      -5.629242      -153.1795
  48   1.0000      -5.627205      -153.1240
  49   1.0000      -5.627204      -153.1240
  50   1.0000      -5.626511      -153.1051
  51   1.0000      -5.626501      -153.1049
  52   1.0000      -5.623323      -153.0184
  53   1.0000      -5.623294      -153.0176
  54   1.0000      -5.622576      -152.9981
  55   1.0000      -5.622538      -152.9970
  56   1.0000      -2.365265       -64.3621
  57   1.0000      -1.431956       -38.9655
  58   1.0000      -1.377988       -37.4970
  59   1.0000      -1.377120       -37.4733
  60   1.0000      -0.643750       -17.5173
  61   1.0000      -0.643678       -17.5154
  62   1.0000      -0.625728       -17.0269
  63   1.0000      -0.594050       -16.1649
  64   1.0000      -0.593594       -16.1525
  65   1.0000      -0.574170       -15.6240
  66   1.0000      -0.574160       -15.6237
  67   1.0000      -0.491085       -13.3631
  68   1.0000      -0.489712       -13.3257
  69   1.0000      -0.486672       -13.2430
  70   1.0000      -0.486091       -13.2272
  71   1.0000      -0.423521       -11.5246
  72   1.0000      -0.420864       -11.4523
  73   1.0000      -0.411911       -11.2087
  74   1.0000      -0.407025       -11.0757
  75   1.0000      -0.376163       -10.2359
  76   1.0000      -0.373006       -10.1500
  77   1.0000      -0.292531        -7.9602
  78   1.0000      -0.292319        -7.9544
  79   1.0000      -0.278637        -7.5821
  80   1.0000      -0.278569        -7.5802
  81   1.0000      -0.258713        -7.0399
  82   1.0000      -0.254225        -6.9178
  83   1.0000      -0.241585        -6.5739
  84   1.0000      -0.238916        -6.5012
  85   1.0000      -0.196382        -5.3438
  86   1.0000      -0.196025        -5.3341
  87   1.0000      -0.190858        -5.1935
  88   1.0000      -0.188184        -5.1208
  89   1.0000      -0.184137        -5.0106
  90   1.0000      -0.183727        -4.9995
  91   1.0000      -0.177107        -4.8193
  92   1.0000      -0.152768        -4.1570
  93   1.0000      -0.146232        -3.9792
  94   1.0000      -0.143589        -3.9073
  95   1.0000      -0.141946        -3.8625
  96   1.0000      -0.141268        -3.8441
  97   1.0000      -0.096547        -2.6272
  98   1.0000      -0.095761        -2.6058
  99   1.0000      -0.089351        -2.4314
 100   1.0000      -0.084614        -2.3025
 101   1.0000      -0.081872        -2.2278
 102   1.0000      -0.079810        -2.1717
 103   1.0000      -0.070762        -1.9255
 104   1.0000      -0.046214        -1.2575
 105   1.0000      -0.038193        -1.0393
 106   1.0000      -0.037025        -1.0075
 107   1.0000      -0.034426        -0.9368
 108   1.0000      -0.031884        -0.8676
 109   1.0000      -0.012613        -0.3432
 110   1.0000      -0.005216        -0.1419
 111   1.0000      -0.002600        -0.0708
 112   1.0000       0.007401         0.2014
 113   1.0000       0.012091         0.3290
 114   1.0000       0.034663         0.9432
 115   1.0000       0.059406         1.6165
 116   0.0000       0.185165         5.0386
 117   0.0000       0.187742         5.1087
 118   0.0000       0.193720         5.2714
 119   0.0000       0.197399         5.3715
 120   0.0000       0.197717         5.3802

MULLIKEN ATOMIC CHARGES AND SPIN POPULATIONS
--------------------------------------------
   0 V :    0.448254    1.198448
   1 S :   -0.247724   -0.023496
   2 S :   -0.260912   -0.025213
   3 S :   -0.261625   -0.025185
   4 S :   -0.248197   -0.022998
   5 O :   -0.506896   -0.138694
   6 C :   -0.147455    0.006475
   7 C :   -0.082308    0.011768
   8 C :   -0.080325    0.011896
   9 C :   -0.149170    0.006444
  10 S :   -0.047106   -0.000525
  11 S :   -0.039244    0.000189
  12 S :   -0.046864   -0.000566
  13 S :   -0.039270    0.000172
  14 C :   -0.377120    0.000385
  15 C :   -0.301558    0.000194
  16 C :   -0.303392    0.000180
  17 C :   -0.377574    0.000434
  18 C :   -0.082453    0.000138
  19 H :    0.142002   -0.000111
  20 H :    0.103769   -0.000011
  21 H :    0.043137    0.000051
  22 H :    0.078920    0.000002
  23 H :    0.094439    0.000061
  24 H :    0.155247   -0.000082
  25 C :   -0.082644    0.000134
  26 H :    0.093785    0.000075
  27 H :    0.155573   -0.000087
  28 H :    0.078802   -0.000004
  29 H :    0.042757    0.000047
  30 H :    0.141742   -0.000113
  31 H :    0.103414   -0.000009
Sum of atomic charges         :   -2.0000000

LOEWDIN ATOMIC CHARGES AND SPIN POPULATIONS
-------------------------------------------
   0 V :   -0.244340    1.152310
   1 S :    0.099391   -0.014855
   2 S :    0.077827   -0.017976
   3 S :    0.077292   -0.017959
   4 S :    0.099136   -0.014549
   5 O :   -0.351132   -0.124131
   6 C :   -0.556214    0.007887
   7 C :   -0.550215    0.012439
   8 C :   -0.549810    0.012406
   9 C :   -0.556289    0.007896
  10 S :    0.338926   -0.001293
  11 S :    0.334228   -0.000736
  12 S :    0.339102   -0.001330
  13 S :    0.333974   -0.000727
  14 C :   -0.294336    0.000235
  15 C :   -0.292561    0.000111
  16 C :   -0.292608    0.000103
  17 C :   -0.294401    0.000256
  18 C :   -0.185945   -0.000037
  19 H :    0.064564   -0.000044
  20 H :    0.049022   -0.000012
  21 H :    0.045928    0.000019
  22 H :    0.053603    0.000010
  23 H :    0.045911    0.000028
  24 H :    0.068028   -0.000007
  25 C :   -0.186031   -0.000041
  26 H :    0.045799    0.000035
  27 H :    0.068108   -0.000006
  28 H :    0.053603    0.000008
  29 H :    0.045843    0.000019
  30 H :    0.064512   -0.000046
  31 H :    0.049084   -0.000010

  Mayer bond orders larger than 0.100000
B(  0-V ,  1-S ) :   0.8085 B(  0-V ,  2-S ) :   0.7690 B(  0-V ,  3-S ) :   0.7692
B(  0-V ,  4-S ) :   0.8088 B(  0-V ,  5-O ) :   2.1075 B(  1-S ,  8-C ) :   1.1216
B(  2-S ,  6-C ) :   1.1473 B(  3-S ,  9-C ) :   1.1476 B(  4-S ,  7-C ) :   1.1221
B(  6-C ,  7-C ) :   1.5175 B(  6-C , 10-S ) :   0.9804 B(  7-C , 11-S ) :   0.9369
B(  8-C ,  9-C ) :   1.5172 B(  8-C , 13-S ) :   0.9361 B(  9-C , 12-S ) :   0.9819
B( 10-S , 16-C ) :   0.9800 B( 11-S , 14-C ) :   1.0237 B( 12-S , 15-C ) :   0.9793
B( 13-S , 17-C ) :   1.0246 B( 14-C , 18-C ) :   0.8713 B( 14-C , 23-H ) :   0.9700
B( 14-C , 24-H ) :   0.9778 B( 15-C , 25-C ) :   0.8828 B( 15-C , 30-H ) :   0.9707
B( 15-C , 31-H ) :   0.9709 B( 16-C , 18-C ) :   0.8828 B( 16-C , 19-H ) :   0.9710
B( 16-C , 20-H ) :   0.9709 B( 17-C , 25-C ) :   0.8711 B( 17-C , 26-H ) :   0.9700
B( 17-C , 27-H ) :   0.9777 B( 18-C , 21-H ) :   0.9512 B( 18-C , 22-H ) :   0.9733
B( 25-C , 28-H ) :   0.9736 B( 25-C , 29-H ) :   0.9508

FINAL SINGLE POINT ENERGY     -4592.714510715980

DIPOLE MOMENT
-------------
                                X             Y             Z
Electronic contribution:     20.27175      13.49110     -10.95254
Nuclear contribution   :    -22.59636     -15.03503      12.20389
                        -----------------------------------------
Total Dipole Moment    :     -2.32462      -1.54393       1.25135
                        -----------------------------------------
Magnitude (a.u.)       :      3.05834
Magnitude (Debye)      :      7.77368

Rotational constants in cm-1:     0.012760     0.002548     0.002431
Rotational constants in MHz :   382.531068    76.380210    72.873181

                             ****ORCA TERMINATED NORMALLY****
TOTAL RUN TIME: 0 days 0 hours 27 minutes 31 seconds 683 msec
