                         Program Version 5.0.4 -  RELEASE  -
|  1> ! nofrozencore ReducedPop printbasis
|  2> ! B3LYP TZVP
|  3>
|  4> %basis
|  5> newgto V "CP(PPP)" end
|  6> end
|  7>
|  8> %pal
|  9> nprocs 4
| 10> end
| 11>
| 12> % sym SymThresh 1e-2 end
| 13> * xyz -2 2
| 14> V -0.2632196685553782 -0.6424750860523128 0.872990180289372
| 15> S 0.81022298825054 -2.0855044169452372 -0.8132289152700309
| 16> S 1.962938348068185 0.2693710756618417 1.2502587794701254
| 17> S -2.101471206456851 -0.8017204418253224 -0.7603331241937293
| 18> S -1.1007404784851869 1.599939352122288 1.331856532843803
| 19> O -0.6331620718558202 -1.5544818800671374 2.1301564230401446
| 20> C 1.7155708706579336 2.1093555207987875 2.2400621908401694
| 21> C 0.4575001424733099 2.656108428335606 2.2705880745955356
| 22> C -0.37086976338155536 -2.46131812975795 -1.585800771921598
| 23> C -1.6030991887036747 -1.9174726819676213 -1.563221398921957
| 24> S 2.989082318222465 2.6485132314967292 2.815373747704835
| 25> S 0.009810917440785676 3.948075926603234 2.887483129590196
| 26> S -3.0662377864707717 -2.6820679700794194 -2.881370522376268
| 27> S 0.009503660084086415 -4.037703921398347 -2.93603923973138
| 28> C 0.8943261954139472 5.1943340313363695 1.8306032170348328
| 29> C -2.4484540364606615 -2.1758657551593865 -4.5357015812561094
| 30> C 3.262906273947758 4.164211320589425 1.7765562149890546
| 31> C -0.08255833595904508 -3.221999047333943 -4.578880154761843
| 32> C 2.395841555175107 5.391519841218652 2.1109325206696528
| 33> H 3.121796052386595 3.836497057292186 0.7446534280253276
| 34> H 4.323141423380295 4.3874330296556945 1.930907171277961
| 35> H 2.7619773889170007 6.263211795994157 1.547144949743522
| 36> H 2.519112471710896 5.622869154825904 3.1755238976528033
| 37> H 0.3454648177248924 6.120921999288021 2.0261250221346745
| 38> H 0.7068632917210207 4.888379490884012 0.7993927406268376
| 39> C -1.465919898082599 -3.1268523785316558 -5.1940704528704105
| 40> H 0.5576011125694025 -3.8089641303562645 -5.249333168490138
| 41> H 0.36560960053800223 -2.2284501564536305 -4.502068277116001
| 42> H -1.9106134139147808 -4.1252118869368335 -5.273438839673877
| 43> H -1.3219077121036178 -2.758798765163676 -6.225516404760441
| 44> H -2.018047908279087 -1.1743527627475712 -4.460967864855288
| 45> H -3.333326167817202 -2.0951693007949985 -5.179331985083143
| 46> *
| 47>
| 48> % eprnmr
| 49> gtensor true
| 50> Nuclei = all H {aiso,adip,aorb,fgrad,rho}
| 51> Nuclei = all V {aiso,adip,aorb,fgrad,rho}
| 52> end
| 53>
| 54>                          ****END OF INPUT****

CARTESIAN COORDINATES (ANGSTROEM)
---------------------------------
  V     -0.263465   -0.643097    0.873971
  S      0.809978   -2.086126   -0.812248
  S      1.962693    0.268749    1.251239
  S     -2.101716   -0.802342   -0.759352
  S     -1.100986    1.599317    1.332837
  O     -0.633407   -1.555104    2.131137
  C      1.715326    2.108734    2.241043
  C      0.457255    2.655486    2.271569
  C     -0.371115   -2.461940   -1.584820
  C     -1.603344   -1.918095   -1.562241
  S      2.988837    2.647891    2.816354
  S      0.009566    3.947454    2.888464
  S     -3.066483   -2.682690   -2.880390
  S      0.009258   -4.038326   -2.935059
  C      0.894081    5.193712    1.831584
  C     -2.448699   -2.176488   -4.534721
  C      3.262661    4.163589    1.777537
  C     -0.082804   -3.222621   -4.577900
  C      2.395596    5.390898    2.111913
  H      3.121551    3.835875    0.745634
  H      4.322896    4.386811    1.931888
  H      2.761732    6.262590    1.548126
  H      2.518867    5.622247    3.176505
  H      0.345220    6.120300    2.027106
  H      0.706618    4.887758    0.800373
  C     -1.466165   -3.127474   -5.193090
  H      0.557356   -3.809586   -5.248353
  H      0.365364   -2.229072   -4.501088
  H     -1.910859   -4.125834   -5.272458
  H     -1.322153   -2.759421   -6.224536
  H     -2.018293   -1.174975   -4.459987
  H     -3.333571   -2.095791   -5.178351

 Total Charge           Charge          ....   -2
 Multiplicity           Mult            ....    2
 Number of Electrons    NEL             ....  233
 Basis Dimension        Dim             ....  517

ORBITAL ENERGIES
----------------
                 SPIN UP ORBITALS
  NO   OCC          E(Eh)            E(eV)
   0   1.0000    -196.646037     -5351.0107
   1   1.0000     -88.689380     -2413.3607
   2   1.0000     -88.689048     -2413.3517
   3   1.0000     -88.647285     -2412.2152
   4   1.0000     -88.647119     -2412.2107
   5   1.0000     -88.615908     -2411.3615
   6   1.0000     -88.615790     -2411.3582
   7   1.0000     -88.608070     -2411.1482
   8   1.0000     -88.607872     -2411.1428
   9   1.0000     -22.021414      -599.2331
  10   1.0000     -18.861805      -513.2558
  11   1.0000     -18.527814      -504.1674
  12   1.0000     -18.522715      -504.0287
  13   1.0000     -18.522705      -504.0284
  14   1.0000     -10.026863      -272.8448
  15   1.0000     -10.026667      -272.8395
  16   1.0000     -10.020613      -272.6747
  17   1.0000      -9.998935      -272.0849
  18   1.0000      -9.998184      -272.0644
  19   1.0000      -9.998159      -272.0637
  20   1.0000      -9.998148      -272.0634
  21   1.0000      -9.985445      -271.7178
  22   1.0000      -9.970876      -271.3213
  23   1.0000      -9.970099      -271.3002
  24   1.0000      -7.751027      -210.9162
  25   1.0000      -7.750811      -210.9103
  26   1.0000      -7.699705      -209.5196
  27   1.0000      -7.699541      -209.5152
  28   1.0000      -7.673613      -208.8096
  29   1.0000      -7.673536      -208.8075
  30   1.0000      -7.666763      -208.6232
  31   1.0000      -7.666655      -208.6203
  32   1.0000      -5.715674      -155.5314
  33   1.0000      -5.715460      -155.5256
  34   1.0000      -5.711033      -155.4051
  35   1.0000      -5.710805      -155.3989
  36   1.0000      -5.706036      -155.2691
  37   1.0000      -5.705811      -155.2630
  38   1.0000      -5.664632      -154.1425
  39   1.0000      -5.664465      -154.1379
  40   1.0000      -5.661437      -154.0555
  41   1.0000      -5.661273      -154.0511
  42   1.0000      -5.654613      -153.8699
  43   1.0000      -5.654450      -153.8654
  44   1.0000      -5.636556      -153.3785
  45   1.0000      -5.636470      -153.3761
  46   1.0000      -5.632645      -153.2721
  47   1.0000      -5.632511      -153.2684
  48   1.0000      -5.631836      -153.2500
  49   1.0000      -5.631754      -153.2478
  50   1.0000      -5.631289      -153.2352
  51   1.0000      -5.631193      -153.2325
  52   1.0000      -5.625235      -153.0704
  53   1.0000      -5.625145      -153.0680
  54   1.0000      -5.624333      -153.0459
  55   1.0000      -5.624232      -153.0431
  56   1.0000      -2.414936       -65.7138
  57   1.0000      -1.455874       -39.6164
  58   1.0000      -1.444524       -39.3075
  59   1.0000      -1.444356       -39.3029
  60   1.0000      -0.694950       -18.9106
  61   1.0000      -0.645015       -17.5517
  62   1.0000      -0.633475       -17.2377
  63   1.0000      -0.622361       -16.9353
  64   1.0000      -0.616702       -16.7813
  65   1.0000      -0.615188       -16.7401
  66   1.0000      -0.566728       -15.4214
  67   1.0000      -0.535995       -14.5852
  68   1.0000      -0.510621       -13.8947
  69   1.0000      -0.476454       -12.9650
  70   1.0000      -0.470165       -12.7938
  71   1.0000      -0.418553       -11.3894
  72   1.0000      -0.401193       -10.9170
  73   1.0000      -0.399184       -10.8623
  74   1.0000      -0.394075       -10.7233
  75   1.0000      -0.387455       -10.5432
  76   1.0000      -0.362851        -9.8737
  77   1.0000      -0.309696        -8.4273
  78   1.0000      -0.297036        -8.0828
  79   1.0000      -0.288532        -7.8513
  80   1.0000      -0.275455        -7.4955
  81   1.0000      -0.259466        -7.0604
  82   1.0000      -0.257055        -6.9948
  83   1.0000      -0.232909        -6.3378
  84   1.0000      -0.219528        -5.9737
  85   1.0000      -0.216393        -5.8883
  86   1.0000      -0.214340        -5.8325
  87   1.0000      -0.204254        -5.5580
  88   1.0000      -0.200156        -5.4465
  89   1.0000      -0.184703        -5.0260
  90   1.0000      -0.176657        -4.8071
  91   1.0000      -0.170714        -4.6454
  92   1.0000      -0.168847        -4.5946
  93   1.0000      -0.163916        -4.4604
  94   1.0000      -0.160605        -4.3703
  95   1.0000      -0.150117        -4.0849
  96   1.0000      -0.143894        -3.9156
  97   1.0000      -0.105733        -2.8771
  98   1.0000      -0.101372        -2.7585
  99   1.0000      -0.097660        -2.6575
 100   1.0000      -0.086040        -2.3413
 101   1.0000      -0.081281        -2.2118
 102   1.0000      -0.076485        -2.0813
 103   1.0000      -0.062433        -1.6989
 104   1.0000      -0.049061        -1.3350
 105   1.0000      -0.044364        -1.2072
 106   1.0000      -0.033375        -0.9082
 107   1.0000      -0.029497        -0.8027
 108   1.0000      -0.024251        -0.6599
 109   1.0000      -0.016945        -0.4611
 110   1.0000      -0.002125        -0.0578
 111   1.0000      -0.002010        -0.0547
 112   1.0000       0.013899         0.3782
 113   1.0000       0.016788         0.4568
 114   1.0000       0.020360         0.5540
 115   1.0000       0.023874         0.6496
 116   1.0000       0.081201         2.2096
 117   0.0000       0.147292         4.0080
 118   0.0000       0.176938         4.8147
 119   0.0000       0.189811         5.1650
 120   0.0000       0.193316         5.2604
 121   0.0000       0.199339         5.4243

                 SPIN DOWN ORBITALS
  NO   OCC          E(Eh)            E(eV)
   0   1.0000    -196.646168     -5351.0143
   1   1.0000     -88.689348     -2413.3599
   2   1.0000     -88.689016     -2413.3508
   3   1.0000     -88.647339     -2412.2167
   4   1.0000     -88.647173     -2412.2122
   5   1.0000     -88.616172     -2411.3686
   6   1.0000     -88.616055     -2411.3655
   7   1.0000     -88.608189     -2411.1514
   8   1.0000     -88.607990     -2411.1460
   9   1.0000     -22.007017      -598.8414
  10   1.0000     -18.865324      -513.3516
  11   1.0000     -18.522705      -504.0284
  12   1.0000     -18.507397      -503.6119
  13   1.0000     -18.507057      -503.6026
  14   1.0000     -10.026856      -272.8446
  15   1.0000     -10.026660      -272.8393
  16   1.0000     -10.020583      -272.6739
  17   1.0000      -9.998311      -272.0679
  18   1.0000      -9.998154      -272.0636
  19   1.0000      -9.998144      -272.0633
  20   1.0000      -9.997563      -272.0475
  21   1.0000      -9.985447      -271.7178
  22   1.0000      -9.970702      -271.3166
  23   1.0000      -9.969926      -271.2955
  24   1.0000      -7.750997      -210.9154
  25   1.0000      -7.750780      -210.9094
  26   1.0000      -7.699759      -209.5211
  27   1.0000      -7.699595      -209.5166
  28   1.0000      -7.673726      -208.8127
  29   1.0000      -7.673649      -208.8106
  30   1.0000      -7.667008      -208.6299
  31   1.0000      -7.666902      -208.6270
  32   1.0000      -5.715662      -155.5311
  33   1.0000      -5.715447      -155.5252
  34   1.0000      -5.711021      -155.4048
  35   1.0000      -5.710794      -155.3986
  36   1.0000      -5.705923      -155.2660
  37   1.0000      -5.705694      -155.2598
  38   1.0000      -5.664705      -154.1444
  39   1.0000      -5.664536      -154.1399
  40   1.0000      -5.661543      -154.0584
  41   1.0000      -5.661380      -154.0540
  42   1.0000      -5.654663      -153.8712
  43   1.0000      -5.654499      -153.8668
  44   1.0000      -5.636673      -153.3817
  45   1.0000      -5.636587      -153.3793
  46   1.0000      -5.633100      -153.2844
  47   1.0000      -5.632970      -153.2809
  48   1.0000      -5.632093      -153.2570
  49   1.0000      -5.632009      -153.2548
  50   1.0000      -5.631428      -153.2390
  51   1.0000      -5.631334      -153.2364
  52   1.0000      -5.625748      -153.0844
  53   1.0000      -5.625659      -153.0820
  54   1.0000      -5.624524      -153.0511
  55   1.0000      -5.624425      -153.0484
  56   1.0000      -2.371501       -64.5318
  57   1.0000      -1.437072       -39.1047
  58   1.0000      -1.384741       -37.6807
  59   1.0000      -1.384210       -37.6663
  60   1.0000      -0.694331       -18.8937
  61   1.0000      -0.644999       -17.5513
  62   1.0000      -0.633109       -17.2278
  63   1.0000      -0.629829       -17.1385
  64   1.0000      -0.616399       -16.7731
  65   1.0000      -0.615233       -16.7413
  66   1.0000      -0.566822       -15.4240
  67   1.0000      -0.536099       -14.5880
  68   1.0000      -0.510435       -13.8897
  69   1.0000      -0.476641       -12.9701
  70   1.0000      -0.469693       -12.7810
  71   1.0000      -0.418906       -11.3990
  72   1.0000      -0.401669       -10.9300
  73   1.0000      -0.400026       -10.8853
  74   1.0000      -0.394019       -10.7218
  75   1.0000      -0.387362       -10.5407
  76   1.0000      -0.362921        -9.8756
  77   1.0000      -0.309495        -8.4218
  78   1.0000      -0.296934        -8.0800
  79   1.0000      -0.288009        -7.8371
  80   1.0000      -0.275471        -7.4959
  81   1.0000      -0.259393        -7.0585
  82   1.0000      -0.257051        -6.9947
  83   1.0000      -0.232908        -6.3378
  84   1.0000      -0.219214        -5.9651
  85   1.0000      -0.215980        -5.8771
  86   1.0000      -0.213781        -5.8173
  87   1.0000      -0.204145        -5.5551
  88   1.0000      -0.199045        -5.4163
  89   1.0000      -0.183335        -4.9888
  90   1.0000      -0.176643        -4.8067
  91   1.0000      -0.170385        -4.6364
  92   1.0000      -0.168637        -4.5888
  93   1.0000      -0.163056        -4.4370
  94   1.0000      -0.160288        -4.3616
  95   1.0000      -0.149675        -4.0729
  96   1.0000      -0.143851        -3.9144
  97   1.0000      -0.104596        -2.8462
  98   1.0000      -0.100638        -2.7385
  99   1.0000      -0.096984        -2.6391
 100   1.0000      -0.087629        -2.3845
 101   1.0000      -0.082884        -2.2554
 102   1.0000      -0.076473        -2.0809
 103   1.0000      -0.060907        -1.6574
 104   1.0000      -0.049730        -1.3532
 105   1.0000      -0.041735        -1.1357
 106   1.0000      -0.032936        -0.8962
 107   1.0000      -0.029375        -0.7993
 108   1.0000      -0.020744        -0.5645
 109   1.0000      -0.015230        -0.4144
 110   1.0000      -0.000725        -0.0197
 111   1.0000       0.000491         0.0134
 112   1.0000       0.015897         0.4326
 113   1.0000       0.020531         0.5587
 114   1.0000       0.021965         0.5977
 115   1.0000       0.080794         2.1985
 116   0.0000       0.147739         4.0202
 117   0.0000       0.156446         4.2571
 118   0.0000       0.183484         4.9929
 119   0.0000       0.190603         5.1866
 120   0.0000       0.209529         5.7016

MULLIKEN ATOMIC CHARGES AND SPIN POPULATIONS
--------------------------------------------
   0 V :    0.417173    1.181176
   1 S :   -0.142092   -0.016138
   2 S :   -0.316273   -0.044433
   3 S :   -0.142849   -0.016162
   4 S :   -0.316228   -0.044113
   5 O :   -0.500362   -0.136727
   6 C :   -0.159745    0.028612
   7 C :   -0.158601    0.028263
   8 C :   -0.101672    0.003393
   9 C :   -0.102211    0.003072
  10 S :    0.076015    0.011904
  11 S :    0.075696    0.011662
  12 S :   -0.167779   -0.007008
  13 S :   -0.166748   -0.007020
  14 C :   -0.344235    0.001540
  15 C :   -0.309682    0.000879
  16 C :   -0.342201    0.001498
  17 C :   -0.309722    0.000894
  18 C :   -0.122845   -0.003105
  19 H :    0.150667    0.000284
  20 H :    0.102991   -0.000107
  21 H :    0.058926    0.001363
  22 H :    0.079681    0.001240
  23 H :    0.102486   -0.000108
  24 H :    0.151517    0.000266
  25 C :   -0.056725   -0.000279
  26 H :    0.093485    0.000010
  27 H :    0.130383   -0.000364
  28 H :    0.070095   -0.000162
  29 H :    0.027207    0.000019
  30 H :    0.130370   -0.000358
  31 H :    0.093280    0.000008
Sum of atomic charges         :   -2.0000000

LOEWDIN ATOMIC CHARGES AND SPIN POPULATIONS
-------------------------------------------
   0 V :   -0.247787    1.133569
   1 S :    0.282277   -0.010100
   2 S :   -0.050167   -0.033503
   3 S :    0.280948   -0.010126
   4 S :   -0.050171   -0.033257
   5 O :   -0.348560   -0.121904
   6 C :   -0.565499    0.028989
   7 C :   -0.563903    0.028766
   8 C :   -0.578717    0.005049
   9 C :   -0.577760    0.004934
  10 S :    0.499715    0.009232
  11 S :    0.498722    0.009039
  12 S :    0.166700   -0.006944
  13 S :    0.168244   -0.006951
  14 C :   -0.280075    0.000693
  15 C :   -0.309524    0.000160
  16 C :   -0.280407    0.000682
  17 C :   -0.309746    0.000167
  18 C :   -0.178208    0.000915
  19 H :    0.067999    0.000183
  20 H :    0.047207   -0.000029
  21 H :    0.049709    0.000479
  22 H :    0.053269    0.000438
  23 H :    0.047110   -0.000029
  24 H :    0.068090    0.000174
  25 C :   -0.189803   -0.000083
  26 H :    0.044636   -0.000056
  27 H :    0.058924   -0.000189
  28 H :    0.051341   -0.000043
  29 H :    0.042094   -0.000010
  30 H :    0.058775   -0.000188
  31 H :    0.044567   -0.000057

  Mayer bond orders larger than 0.100000
B(  0-V ,  1-S ) :   0.7553 B(  0-V ,  2-S ) :   0.8210 B(  0-V ,  3-S ) :   0.7578
B(  0-V ,  4-S ) :   0.8178 B(  0-V ,  5-O ) :   2.1024 B(  1-S ,  8-C ) :   1.4328
B(  2-S ,  6-C ) :   0.8726 B(  3-S ,  9-C ) :   1.4310 B(  4-S ,  7-C ) :   0.8750
B(  6-C ,  7-C ) :   1.5761 B(  6-C , 10-S ) :   1.2606 B(  7-C , 11-S ) :   1.2566
B(  8-C ,  9-C ) :   1.4608 B(  8-C , 13-S ) :   0.7200 B(  9-C , 12-S ) :   0.7189
B( 10-S , 16-C ) :   0.8998 B( 11-S , 14-C ) :   0.9023 B( 12-S , 15-C ) :   1.0700
B( 13-S , 17-C ) :   1.0695 B( 14-C , 18-C ) :   0.8846 B( 14-C , 23-H ) :   0.9666
B( 14-C , 24-H ) :   0.9695 B( 15-C , 25-C ) :   0.8799 B( 15-C , 30-H ) :   0.9785
B( 15-C , 31-H ) :   0.9700 B( 16-C , 18-C ) :   0.8852 B( 16-C , 19-H ) :   0.9701
B( 16-C , 20-H ) :   0.9662 B( 17-C , 25-C ) :   0.8801 B( 17-C , 26-H ) :   0.9696
B( 17-C , 27-H ) :   0.9790 B( 18-C , 21-H ) :   0.9533 B( 18-C , 22-H ) :   0.9761
B( 25-C , 28-H ) :   0.9684 B( 25-C , 29-H ) :   0.9514

FINAL SINGLE POINT ENERGY     -4592.440232144819

DIPOLE MOMENT
-------------
                                X             Y             Z
Electronic contribution:     -5.56272     -13.74847      22.48829
Nuclear contribution   :      6.95962      16.98200     -23.41360
                        -----------------------------------------
Total Dipole Moment    :      1.39690       3.23353      -0.92531
                        -----------------------------------------
Magnitude (a.u.)       :      3.64188
Magnitude (Debye)      :      9.25692

Rotational constants in cm-1:     0.012766     0.002546     0.002429
Rotational constants in MHz :   382.726573    76.339490    72.826551

                             ****ORCA TERMINATED NORMALLY****
TOTAL RUN TIME: 0 days 0 hours 43 minutes 42 seconds 443 msec
