                         Program Version 5.0.4 -  RELEASE  -
|  1> ! nofrozencore ReducedPop printbasis
|  2> ! B3LYP TZVP
|  3>
|  4> %basis
|  5> newgto V "CP(PPP)" end
|  6> end
|  7>
|  8> %pal
|  9> nprocs 4
| 10> end
| 11>
| 12> % sym SymThresh 1e-2 end
| 13> * xyz -2 2
| 14> V -0.6064570883892546 0.07996738899884863 0.9327007158553782
| 15> S -1.9171193163779479 -1.1946816800023854 -0.699202321966417
| 16> S 0.7914701553619325 -1.9229676253810732 1.1106972312654044
| 17> S -1.1827835314262398 1.9760109166552222 -0.5067839223004835
| 18> S 1.5105431133575289 1.2494800687483318 1.3302561244819768
| 19> O -1.4792784858719983 0.1923345422066698 2.264935809025589
| 20> C 2.2922323370544713 -1.3366711594897012 1.8389269534539041
| 21> C 2.5924481814696803 -0.013982180885689742 1.929069201748146
| 22> C -2.8142718444118584 0.04434797702465786 -1.5855720517675942
| 23> C -2.508505977574023 1.3659141018622663 -1.5055023416106652
| 24> S 3.4048449164004575 -2.630577213161474 2.4244133117489644
| 25> S 4.138428157611706 0.5872656494659438 2.6388029567572735
| 26> S -3.3969705444025617 2.6300690765247334 -2.437184311466965
| 27> S -4.1424294143998175 -0.5867643726057076 -2.631746319340984
| 28> C 5.407056962202155 0.006938233202314119 1.4290164299339718
| 29> C -2.8984640771493755 2.236039426572076 -4.177136525941528
| 30> C 4.834859571807778 -2.5104606242502046 1.2627584544963442
| 31> C -3.4777099249325336 -0.25533195221678395 -4.3282432673089115
| 32> C 5.875848889814293 -1.4390759677080123 1.583543491866073
| 33> H 4.406447060488999 -2.361958415490336 0.22499030828738556
| 34> H 5.295777660137273 -3.4806188437442263 1.2909759082417491
| 35> H 6.734990552876533 -1.5896481071273418 0.906228764542552
| 36> H 6.238504109436712 -1.588068931566564 2.5905134291304677
| 37> H 6.240530572801231 0.6720149967311264 1.5622672301116165
| 38> H 4.983713448742864 0.18734916899385087 0.3946267383893561
| 39> C -3.7241510223913337 1.1527581990269846 -4.876857203754755
| 40> H -4.13652418009145 -1.0991363216300207 -5.078269263456733
| 41> H -2.834659020541757 -0.42479081071371894 -4.34932881916606
| 42> H -4.946456323690462 1.4326396854781618 -4.810623830875751
| 43> H -3.4669855951233384 1.1563268464760108 -5.924084539086704
| 44> H -2.2548407668760784 2.1084786354745964 -4.195185154405451
| 45> H -3.0992562857010784 3.3672874577359746 -4.81124622135371
| 46> *
| 47>
| 48> % eprnmr
| 49> gtensor true
| 50> Nuclei = all H {aiso,adip,aorb,fgrad,rho}
| 51> Nuclei = all V {aiso,adip,aorb,fgrad,rho}
| 52> end
| 53>
| 54>                          ****END OF INPUT****

CARTESIAN COORDINATES (ANGSTROEM)
---------------------------------
  V     -0.607036    0.080028    0.933735
  S     -1.917699   -1.194621   -0.698168
  S      0.790891   -1.922907    1.111731
  S     -1.183363    1.976072   -0.505750
  S      1.509964    1.249541    1.331290
  O     -1.479858    0.192395    2.265970
  C      2.291653   -1.336610    1.839961
  C      2.591869   -0.013921    1.930103
  C     -2.814851    0.044409   -1.584538
  C     -2.509085    1.365975   -1.504468
  S      3.404266   -2.630516    2.425447
  S      4.137849    0.587327    2.639837
  S     -3.397550    2.630130   -2.436150
  S     -4.143009   -0.586704   -2.630712
  C      5.406478    0.006999    1.430050
  C     -2.899043    2.236100   -4.176103
  C      4.834280   -2.510400    1.263792
  C     -3.478289   -0.255271   -4.327209
  C      5.875270   -1.439015    1.584577
  H      4.405868   -2.361898    0.226024
  H      5.295198   -3.480558    1.292010
  H      6.734411   -1.589587    0.907263
  H      6.237925   -1.588008    2.591547
  H      6.239951    0.672076    1.563301
  H      4.983134    0.187410    0.395661
  C     -3.724730    1.152819   -4.875823
  H     -4.137104   -1.099075   -5.077235
  H     -2.835238   -0.424730   -4.348295
  H     -4.947036    1.432701   -4.809590
  H     -3.467565    1.156388   -5.923051
  H     -2.255420    2.108540   -4.194151
  H     -3.099836    3.367348   -4.810212

 Total Charge           Charge          ....   -2
 Multiplicity           Mult            ....    2
 Number of Electrons    NEL             ....  233
 Basis Dimension        Dim             ....  517

ORBITAL ENERGIES
----------------
                 SPIN UP ORBITALS
  NO   OCC          E(Eh)            E(eV)
   0   1.0000    -196.641167     -5350.8782
   1   1.0000     -88.679538     -2413.0929
   2   1.0000     -88.679423     -2413.0898
   3   1.0000     -88.677245     -2413.0305
   4   1.0000     -88.677147     -2413.0278
   5   1.0000     -88.613468     -2411.2950
   6   1.0000     -88.613390     -2411.2929
   7   1.0000     -88.612794     -2411.2767
   8   1.0000     -88.612786     -2411.2765
   9   1.0000     -22.017032      -599.1139
  10   1.0000     -18.858330      -513.1613
  11   1.0000     -18.523862      -504.0599
  12   1.0000     -18.518077      -503.9025
  13   1.0000     -18.518050      -503.9018
  14   1.0000     -10.019333      -272.6399
  15   1.0000     -10.017481      -272.5895
  16   1.0000     -10.017463      -272.5890
  17   1.0000     -10.008936      -272.3570
  18   1.0000     -10.007895      -272.3287
  19   1.0000     -10.004251      -272.2295
  20   1.0000      -9.994564      -271.9659
  21   1.0000      -9.993848      -271.9464
  22   1.0000      -9.992547      -271.9110
  23   1.0000      -9.991826      -271.8914
  24   1.0000      -7.732944      -210.4241
  25   1.0000      -7.732869      -210.4221
  26   1.0000      -7.730888      -210.3681
  27   1.0000      -7.730811      -210.3661
  28   1.0000      -7.667926      -208.6549
  29   1.0000      -7.667861      -208.6531
  30   1.0000      -7.667236      -208.6361
  31   1.0000      -7.667205      -208.6353
  32   1.0000      -5.698284      -155.0582
  33   1.0000      -5.698200      -155.0559
  34   1.0000      -5.696131      -154.9996
  35   1.0000      -5.696054      -154.9975
  36   1.0000      -5.694378      -154.9519
  37   1.0000      -5.694302      -154.9498
  38   1.0000      -5.692233      -154.8935
  39   1.0000      -5.692151      -154.8913
  40   1.0000      -5.687532      -154.7656
  41   1.0000      -5.687455      -154.7635
  42   1.0000      -5.685655      -154.7145
  43   1.0000      -5.685575      -154.7124
  44   1.0000      -5.632761      -153.2752
  45   1.0000      -5.632688      -153.2732
  46   1.0000      -5.632071      -153.2564
  47   1.0000      -5.632059      -153.2561
  48   1.0000      -5.626358      -153.1010
  49   1.0000      -5.626277      -153.0988
  50   1.0000      -5.625915      -153.0889
  51   1.0000      -5.625859      -153.0874
  52   1.0000      -5.625680      -153.0825
  53   1.0000      -5.625650      -153.0817
  54   1.0000      -5.625215      -153.0699
  55   1.0000      -5.625192      -153.0693
  56   1.0000      -2.410658       -65.5973
  57   1.0000      -1.452019       -39.5115
  58   1.0000      -1.440438       -39.1963
  59   1.0000      -1.439357       -39.1669
  60   1.0000      -0.666114       -18.1259
  61   1.0000      -0.644061       -17.5258
  62   1.0000      -0.619371       -16.8540
  63   1.0000      -0.605840       -16.4857
  64   1.0000      -0.600249       -16.3336
  65   1.0000      -0.594430       -16.1753
  66   1.0000      -0.575980       -15.6732
  67   1.0000      -0.508309       -13.8318
  68   1.0000      -0.492406       -13.3991
  69   1.0000      -0.490601       -13.3499
  70   1.0000      -0.487583       -13.2678
  71   1.0000      -0.451108       -12.2753
  72   1.0000      -0.436615       -11.8809
  73   1.0000      -0.422095       -11.4858
  74   1.0000      -0.410797       -11.1784
  75   1.0000      -0.392472       -10.6797
  76   1.0000      -0.373858       -10.1732
  77   1.0000      -0.305736        -8.3195
  78   1.0000      -0.294507        -8.0139
  79   1.0000      -0.289525        -7.8784
  80   1.0000      -0.278723        -7.5844
  81   1.0000      -0.267152        -7.2696
  82   1.0000      -0.256688        -6.9848
  83   1.0000      -0.245543        -6.6816
  84   1.0000      -0.238201        -6.4818
  85   1.0000      -0.195335        -5.3153
  86   1.0000      -0.194959        -5.3051
  87   1.0000      -0.189437        -5.1549
  88   1.0000      -0.185212        -5.0399
  89   1.0000      -0.184641        -5.0243
  90   1.0000      -0.177363        -4.8263
  91   1.0000      -0.173393        -4.7183
  92   1.0000      -0.156010        -4.2452
  93   1.0000      -0.155740        -4.2379
  94   1.0000      -0.151892        -4.1332
  95   1.0000      -0.145837        -3.9684
  96   1.0000      -0.141900        -3.8613
  97   1.0000      -0.098676        -2.6851
  98   1.0000      -0.098029        -2.6675
  99   1.0000      -0.091139        -2.4800
 100   1.0000      -0.084932        -2.3111
 101   1.0000      -0.082765        -2.2522
 102   1.0000      -0.081337        -2.2133
 103   1.0000      -0.071130        -1.9355
 104   1.0000      -0.051146        -1.3918
 105   1.0000      -0.039572        -1.0768
 106   1.0000      -0.039481        -1.0743
 107   1.0000      -0.037061        -1.0085
 108   1.0000      -0.033377        -0.9082
 109   1.0000      -0.014229        -0.3872
 110   1.0000      -0.005600        -0.1524
 111   1.0000      -0.004510        -0.1227
 112   1.0000       0.005046         0.1373
 113   1.0000       0.009528         0.2593
 114   1.0000       0.015193         0.4134
 115   1.0000       0.032142         0.8746
 116   1.0000       0.058343         1.5876
 117   0.0000       0.176429         4.8009
 118   0.0000       0.185966         5.0604
 119   0.0000       0.193924         5.2769
 120   0.0000       0.196556         5.3486
 121   0.0000       0.210232         5.7207

                 SPIN DOWN ORBITALS
  NO   OCC          E(Eh)            E(eV)
   0   1.0000    -196.641308     -5350.8820
   1   1.0000     -88.679551     -2413.0933
   2   1.0000     -88.679436     -2413.0901
   3   1.0000     -88.677258     -2413.0309
   4   1.0000     -88.677160     -2413.0282
   5   1.0000     -88.613627     -2411.2994
   6   1.0000     -88.613549     -2411.2973
   7   1.0000     -88.612954     -2411.2811
   8   1.0000     -88.612946     -2411.2808
   9   1.0000     -22.002382      -598.7153
  10   1.0000     -18.861873      -513.2577
  11   1.0000     -18.518749      -503.9208
  12   1.0000     -18.502611      -503.4816
  13   1.0000     -18.501920      -503.4628
  14   1.0000     -10.019333      -272.6399
  15   1.0000     -10.017477      -272.5894
  16   1.0000     -10.017460      -272.5889
  17   1.0000     -10.008933      -272.3569
  18   1.0000     -10.007891      -272.3286
  19   1.0000     -10.004251      -272.2295
  20   1.0000      -9.994309      -271.9590
  21   1.0000      -9.993594      -271.9395
  22   1.0000      -9.992292      -271.9041
  23   1.0000      -9.991573      -271.8845
  24   1.0000      -7.732958      -210.4245
  25   1.0000      -7.732883      -210.4224
  26   1.0000      -7.730902      -210.3685
  27   1.0000      -7.730825      -210.3664
  28   1.0000      -7.668074      -208.6589
  29   1.0000      -7.668009      -208.6571
  30   1.0000      -7.667384      -208.6401
  31   1.0000      -7.667353      -208.6393
  32   1.0000      -5.698300      -155.0586
  33   1.0000      -5.698216      -155.0564
  34   1.0000      -5.696147      -155.0000
  35   1.0000      -5.696070      -154.9980
  36   1.0000      -5.694398      -154.9524
  37   1.0000      -5.694322      -154.9504
  38   1.0000      -5.692253      -154.8941
  39   1.0000      -5.692171      -154.8918
  40   1.0000      -5.687549      -154.7661
  41   1.0000      -5.687472      -154.7640
  42   1.0000      -5.685671      -154.7150
  43   1.0000      -5.685591      -154.7128
  44   1.0000      -5.632932      -153.2799
  45   1.0000      -5.632859      -153.2779
  46   1.0000      -5.632242      -153.2611
  47   1.0000      -5.632230      -153.2608
  48   1.0000      -5.626744      -153.1115
  49   1.0000      -5.626665      -153.1093
  50   1.0000      -5.626069      -153.0931
  51   1.0000      -5.626052      -153.0927
  52   1.0000      -5.626040      -153.0923
  53   1.0000      -5.625996      -153.0911
  54   1.0000      -5.625351      -153.0736
  55   1.0000      -5.625327      -153.0729
  56   1.0000      -2.366535       -64.3967
  57   1.0000      -1.433262       -39.0010
  58   1.0000      -1.379086       -37.5268
  59   1.0000      -1.378435       -37.5091
  60   1.0000      -0.666090       -18.1252
  61   1.0000      -0.644011       -17.5244
  62   1.0000      -0.626950       -17.0602
  63   1.0000      -0.605838       -16.4857
  64   1.0000      -0.600027       -16.3276
  65   1.0000      -0.594232       -16.1699
  66   1.0000      -0.575975       -15.6731
  67   1.0000      -0.508272       -13.8308
  68   1.0000      -0.492429       -13.3997
  69   1.0000      -0.490635       -13.3509
  70   1.0000      -0.487594       -13.2681
  71   1.0000      -0.451135       -12.2760
  72   1.0000      -0.436912       -11.8890
  73   1.0000      -0.422378       -11.4935
  74   1.0000      -0.410837       -11.1794
  75   1.0000      -0.392504       -10.6806
  76   1.0000      -0.373855       -10.1731
  77   1.0000      -0.305739        -8.3196
  78   1.0000      -0.294493        -8.0135
  79   1.0000      -0.289486        -7.8773
  80   1.0000      -0.278702        -7.5839
  81   1.0000      -0.267134        -7.2691
  82   1.0000      -0.256485        -6.9793
  83   1.0000      -0.245392        -6.6775
  84   1.0000      -0.238150        -6.4804
  85   1.0000      -0.194938        -5.3045
  86   1.0000      -0.194906        -5.3037
  87   1.0000      -0.189264        -5.1501
  88   1.0000      -0.185173        -5.0388
  89   1.0000      -0.183425        -4.9913
  90   1.0000      -0.176518        -4.8033
  91   1.0000      -0.173304        -4.7158
  92   1.0000      -0.155811        -4.2398
  93   1.0000      -0.155514        -4.2318
  94   1.0000      -0.151226        -4.1151
  95   1.0000      -0.145603        -3.9621
  96   1.0000      -0.141717        -3.8563
  97   1.0000      -0.097533        -2.6540
  98   1.0000      -0.097080        -2.6417
  99   1.0000      -0.091233        -2.4826
 100   1.0000      -0.084920        -2.3108
 101   1.0000      -0.083164        -2.2630
 102   1.0000      -0.082299        -2.2395
 103   1.0000      -0.072412        -1.9704
 104   1.0000      -0.047053        -1.2804
 105   1.0000      -0.039696        -1.0802
 106   1.0000      -0.038748        -1.0544
 107   1.0000      -0.036040        -0.9807
 108   1.0000      -0.033328        -0.9069
 109   1.0000      -0.013311        -0.3622
 110   1.0000      -0.006877        -0.1871
 111   1.0000      -0.003552        -0.0967
 112   1.0000       0.005896         0.1604
 113   1.0000       0.010431         0.2838
 114   1.0000       0.032391         0.8814
 115   1.0000       0.057557         1.5662
 116   0.0000       0.176162         4.7936
 117   0.0000       0.184472         5.0197
 118   0.0000       0.187068         5.0904
 119   0.0000       0.194466         5.2917
 120   0.0000       0.196791         5.3550

MULLIKEN ATOMIC CHARGES AND SPIN POPULATIONS
--------------------------------------------
   0 V :    0.446416    1.198285
   1 S :   -0.249436   -0.024099
   2 S :   -0.253547   -0.024120
   3 S :   -0.249800   -0.024028
   4 S :   -0.253750   -0.024037
   5 O :   -0.506095   -0.138099
   6 C :   -0.116269    0.008863
   7 C :   -0.114794    0.008856
   8 C :   -0.117356    0.008916
   9 C :   -0.117558    0.008866
  10 S :   -0.043984   -0.000157
  11 S :   -0.043743   -0.000193
  12 S :   -0.046924   -0.000215
  13 S :   -0.047340   -0.000245
  14 C :   -0.340386    0.000271
  15 C :   -0.409888    0.000636
  16 C :   -0.338587    0.000255
  17 C :   -0.406213    0.000642
  18 C :   -0.084777    0.000145
  19 H :    0.138481   -0.000102
  20 H :    0.109793    0.000022
  21 H :    0.043360    0.000039
  22 H :    0.081384    0.000020
  23 H :    0.109735    0.000023
  24 H :    0.139302   -0.000104
  25 C :   -0.072150    0.000049
  26 H :    0.026684    0.000006
  27 H :    0.286272   -0.000256
  28 H :    0.053141   -0.000005
  29 H :    0.062804    0.000026
  30 H :    0.290198   -0.000262
  31 H :    0.025028    0.000002
Sum of atomic charges         :   -2.0000000

LOEWDIN ATOMIC CHARGES AND SPIN POPULATIONS
-------------------------------------------
   0 V :   -0.242900    1.152325
   1 S :    0.089741   -0.016286
   2 S :    0.088452   -0.016338
   3 S :    0.089469   -0.016221
   4 S :    0.088193   -0.016309
   5 O :   -0.350696   -0.123590
   6 C :   -0.553056    0.009990
   7 C :   -0.552483    0.009945
   8 C :   -0.551259    0.009985
   9 C :   -0.551598    0.010016
  10 S :    0.337079   -0.001018
  11 S :    0.336926   -0.001040
  12 S :    0.348513   -0.001030
  13 S :    0.347937   -0.001047
  14 C :   -0.296386    0.000163
  15 C :   -0.148941    0.000177
  16 C :   -0.296412    0.000155
  17 C :   -0.154612    0.000186
  18 C :   -0.184495   -0.000035
  19 H :    0.072472   -0.000032
  20 H :    0.043728    0.000005
  21 H :    0.047336    0.000018
  22 H :    0.051497    0.000013
  23 H :    0.043797    0.000006
  24 H :    0.072603   -0.000033
  25 C :   -0.158778   -0.000048
  26 H :    0.063266    0.000000
  27 H :   -0.124717    0.000013
  28 H :    0.069090    0.000007
  29 H :    0.045016    0.000014
  30 H :   -0.131942    0.000013
  31 H :    0.063160   -0.000002

  Mayer bond orders larger than 0.100000
B(  0-V ,  1-S ) :   0.7877 B(  0-V ,  2-S ) :   0.7917 B(  0-V ,  3-S ) :   0.7899
B(  0-V ,  4-S ) :   0.7891 B(  0-V ,  5-O ) :   2.1086 B(  1-S ,  8-C ) :   1.1440
B(  2-S ,  6-C ) :   1.1361 B(  3-S ,  9-C ) :   1.1428 B(  4-S ,  7-C ) :   1.1374
B(  6-C ,  7-C ) :   1.5192 B(  6-C , 10-S ) :   0.9531 B(  7-C , 11-S ) :   0.9528
B(  8-C ,  9-C ) :   1.4962 B(  8-C , 13-S ) :   0.9602 B(  9-C , 12-S ) :   0.9604
B( 10-S , 16-C ) :   1.0051 B( 11-S , 14-C ) :   1.0050 B( 12-S , 15-C ) :   0.9904
B( 13-S , 17-C ) :   0.9912 B( 14-C , 18-C ) :   0.8784 B( 14-C , 23-H ) :   0.9698
B( 14-C , 24-H ) :   0.9732 B( 15-C , 25-C ) :   0.8575 B( 15-C , 30-H ) :   0.9841
B( 15-C , 31-H ) :   0.9412 B( 16-C , 18-C ) :   0.8784 B( 16-C , 19-H ) :   0.9731
B( 16-C , 20-H ) :   0.9699 B( 17-C , 25-C ) :   0.8578 B( 17-C , 26-H ) :   0.9430
B( 17-C , 27-H ) :   0.9838 B( 18-C , 21-H ) :   0.9526 B( 18-C , 22-H ) :   0.9734
B( 25-C , 28-H ) :   0.9667 B( 25-C , 29-H ) :   0.9563

FINAL SINGLE POINT ENERGY     -4592.074844216871

DIPOLE MOMENT
-------------
                                X             Y             Z
Electronic contribution:    -13.31898       1.61615      22.77300
Nuclear contribution   :     15.14894      -1.88958     -25.13454
                        -----------------------------------------
Total Dipole Moment    :      1.82996      -0.27343      -2.36154
                        -----------------------------------------
Magnitude (a.u.)       :      3.00006
Magnitude (Debye)      :      7.62556

Rotational constants in cm-1:     0.012769     0.002549     0.002431
Rotational constants in MHz :   382.800861    76.406749    72.883069

                             ****ORCA TERMINATED NORMALLY****
TOTAL RUN TIME: 0 days 0 hours 42 minutes 40 seconds 799 msec
