                         Program Version 5.0.4 -  RELEASE  -
|  1> ! nofrozencore ReducedPop printbasis
|  2> ! B3LYP TZVP
|  3>
|  4> %basis
|  5> newgto V "CP(PPP)" end
|  6> end
|  7>
|  8> %pal
|  9> nprocs 8
| 10> end
| 11>
| 12> % sym SymThresh 1e-2 end
| 13> * xyz -2 2
| 14> V 0.7200752516475792 0.45286773344913955 0.7215095202298544
| 15> S 2.018214962845979 -0.8024165542486461 -0.935340173531713
| 16> S 0.32871857946193883 2.0737450251560965 -1.0721370095085165
| 17> S 0.13608490110068092 -1.7806656101931964 1.5399898223886772
| 18> S -1.5345067714276515 1.10982004758733 1.4234389753515748
| 19> O 1.7550891462486733 1.097698499174842 1.751887705888538
| 20> C -1.068585760785314 3.001904751498467 -0.5157714109707878
| 21> C -1.8466246771739279 2.5988147155150365 0.5245186472460099
| 22> C 2.1089381101774767 -2.430924278320689 -0.25990951743076063
| 23> C 1.3232478704173132 -2.839646791033997 0.7737315271335196
| 24> S -1.3989257390187106 4.508233859011967 -1.4535833887266392
| 25> S -3.2953118294235666 3.525233480241267 1.073212790812313
| 26> S 1.3871711847835724 -4.516445441441776 1.4438935052530535
| 27> S 3.29983249879781 -3.5222690545712867 -1.070401430491055
| 28> C -4.4708699391575655 3.351021640097013 -0.36178806455265206
| 29> C 0.7207366763274248 -5.56852488760769 0.01418844460381672
| 30> C -2.998292487944878 4.116773924062554 -2.3250571893235032
| 31> C 2.1902460040322485 -4.805758774315281 -1.9159160316259836
| 32> C -4.252502792408896 4.3214687336796755 -1.5027566678892241
| 33> H -2.836144788536237 3.091051597065965 -2.6681854312305
| 34> H -2.91193992350495 4.800572894629121 -3.178902657210844
| 35> H -5.10222371030497 4.187089150547773 -2.1928650098849936
| 36> H -4.304113153764059 5.353042682193071 -1.1390373506660805
| 37> H -5.422896762758791 3.4935752086570795 0.1649000965944836
| 38> H -4.362574080473678 2.2960952410297093 -0.6292912684957296
| 39> C 1.7406316068830283 -5.8963253070391906 -1.01412569558512
| 40> H 2.9990430518378237 -4.968044596353498 -2.6902330563092627
| 41> H 1.4836957647470863 -4.02949443340421 -2.303465841427228
| 42> H 2.580069751411421 -6.46846293271314 -0.6015751295839284
| 43> H 1.2051410903403765 -6.585389986308304 -1.6929789997080629
| 44> H -0.12190381333753678 -4.861607141557203 -0.1924379666172404
| 45> H 0.36524436290673196 -6.334509722610852 0.7672864191854658
| 46> *
| 47>
| 48> % eprnmr
| 49> gtensor true
| 50> Nuclei = all H {aiso,adip,aorb,fgrad,rho}
| 51> Nuclei = all V {aiso,adip,aorb,fgrad,rho}
| 52> end
| 53>
| 54>                          ****END OF INPUT****

CARTESIAN COORDINATES (ANGSTROEM)
---------------------------------
  V      0.720802    0.453421    0.722267
  S      2.018942   -0.801864   -0.934582
  S      0.329446    2.074298   -1.071379
  S      0.136812   -1.780113    1.540748
  S     -1.533780    1.110373    1.424197
  O      1.755816    1.098251    1.752645
  C     -1.067859    3.002458   -0.515014
  C     -1.845897    2.599368    0.525276
  C      2.109665   -2.430371   -0.259152
  C      1.323975   -2.839094    0.774489
  S     -1.398198    4.508787   -1.452826
  S     -3.294585    3.525786    1.073971
  S      1.387898   -4.515893    1.444651
  S      3.300560   -3.521716   -1.069644
  C     -4.470143    3.351574   -0.361030
  C      0.721464   -5.567972    0.014946
  C     -2.997565    4.117327   -2.324299
  C      2.190973   -4.805206   -1.915158
  C     -4.251776    4.322022   -1.501999
  H     -2.835418    3.091604   -2.667428
  H     -2.911213    4.801126   -3.178145
  H     -5.101496    4.187642   -2.192107
  H     -4.303386    5.353596   -1.138280
  H     -5.422170    3.494128    0.165658
  H     -4.361847    2.296648   -0.628534
  C      1.741359   -5.895772   -1.013368
  H      2.999770   -4.967492   -2.689475
  H      1.484423   -4.028942   -2.302708
  H      2.580797   -6.467910   -0.600817
  H      1.205868   -6.584837   -1.692221
  H     -0.121177   -4.861054   -0.191680
  H      0.365972   -6.333957    0.768044

 Total Charge           Charge          ....   -2
 Multiplicity           Mult            ....    2
 Number of Electrons    NEL             ....  233
 Basis Dimension        Dim             ....  517

ORBITAL ENERGIES
----------------
                 SPIN UP ORBITALS
  NO   OCC          E(Eh)            E(eV)
   0   1.0000    -196.639172     -5350.8239
   1   1.0000     -88.674194     -2412.9475
   2   1.0000     -88.674118     -2412.9454
   3   1.0000     -88.672059     -2412.8894
   4   1.0000     -88.672052     -2412.8892
   5   1.0000     -88.611034     -2411.2288
   6   1.0000     -88.611029     -2411.2287
   7   1.0000     -88.611017     -2411.2284
   8   1.0000     -88.610970     -2411.2271
   9   1.0000     -22.014977      -599.0580
  10   1.0000     -18.856349      -513.1074
  11   1.0000     -18.521799      -504.0038
  12   1.0000     -18.516027      -503.8467
  13   1.0000     -18.515988      -503.8456
  14   1.0000     -10.025302      -272.8023
  15   1.0000     -10.025273      -272.8015
  16   1.0000     -10.017249      -272.5832
  17   1.0000     -10.017240      -272.5830
  18   1.0000     -10.015608      -272.5386
  19   1.0000     -10.007788      -272.3258
  20   1.0000      -9.990336      -271.8509
  21   1.0000      -9.989619      -271.8314
  22   1.0000      -9.989065      -271.8163
  23   1.0000      -9.988360      -271.7971
  24   1.0000      -7.727891      -210.2866
  25   1.0000      -7.727821      -210.2847
  26   1.0000      -7.725810      -210.2300
  27   1.0000      -7.725797      -210.2296
  28   1.0000      -7.665516      -208.5893
  29   1.0000      -7.665503      -208.5889
  30   1.0000      -7.665481      -208.5883
  31   1.0000      -7.665443      -208.5873
  32   1.0000      -5.693079      -154.9166
  33   1.0000      -5.693009      -154.9147
  34   1.0000      -5.690919      -154.8578
  35   1.0000      -5.690901      -154.8573
  36   1.0000      -5.689247      -154.8123
  37   1.0000      -5.689175      -154.8103
  38   1.0000      -5.687153      -154.7553
  39   1.0000      -5.687149      -154.7552
  40   1.0000      -5.682672      -154.6334
  41   1.0000      -5.682605      -154.6315
  42   1.0000      -5.680631      -154.5778
  43   1.0000      -5.680630      -154.5778
  44   1.0000      -5.630338      -153.2093
  45   1.0000      -5.630314      -153.2086
  46   1.0000      -5.630307      -153.2084
  47   1.0000      -5.630254      -153.2070
  48   1.0000      -5.623949      -153.0354
  49   1.0000      -5.623943      -153.0353
  50   1.0000      -5.623916      -153.0345
  51   1.0000      -5.623880      -153.0335
  52   1.0000      -5.623515      -153.0236
  53   1.0000      -5.623504      -153.0233
  54   1.0000      -5.623480      -153.0227
  55   1.0000      -5.623463      -153.0222
  56   1.0000      -2.408708       -65.5443
  57   1.0000      -1.450084       -39.4588
  58   1.0000      -1.438480       -39.1430
  59   1.0000      -1.437415       -39.1141
  60   1.0000      -0.650986       -17.7142
  61   1.0000      -0.645505       -17.5651
  62   1.0000      -0.617428       -16.8011
  63   1.0000      -0.595525       -16.2051
  64   1.0000      -0.593770       -16.1573
  65   1.0000      -0.576049       -15.6751
  66   1.0000      -0.575580       -15.6623
  67   1.0000      -0.494277       -13.4500
  68   1.0000      -0.490555       -13.3487
  69   1.0000      -0.486574       -13.2404
  70   1.0000      -0.484803       -13.1922
  71   1.0000      -0.419683       -11.4202
  72   1.0000      -0.414886       -11.2896
  73   1.0000      -0.414725       -11.2852
  74   1.0000      -0.409380       -11.1398
  75   1.0000      -0.374252       -10.1839
  76   1.0000      -0.369820       -10.0633
  77   1.0000      -0.303745        -8.2653
  78   1.0000      -0.297877        -8.1056
  79   1.0000      -0.277042        -7.5387
  80   1.0000      -0.276303        -7.5186
  81   1.0000      -0.262417        -7.1407
  82   1.0000      -0.258867        -7.0441
  83   1.0000      -0.252873        -6.8810
  84   1.0000      -0.244090        -6.6420
  85   1.0000      -0.206553        -5.6206
  86   1.0000      -0.203226        -5.5301
  87   1.0000      -0.198922        -5.4129
  88   1.0000      -0.197001        -5.3607
  89   1.0000      -0.185374        -5.0443
  90   1.0000      -0.180202        -4.9035
  91   1.0000      -0.171893        -4.6774
  92   1.0000      -0.149257        -4.0615
  93   1.0000      -0.141874        -3.8606
  94   1.0000      -0.140716        -3.8291
  95   1.0000      -0.135211        -3.6793
  96   1.0000      -0.130109        -3.5404
  97   1.0000      -0.095676        -2.6035
  98   1.0000      -0.094240        -2.5644
  99   1.0000      -0.085564        -2.3283
 100   1.0000      -0.079534        -2.1642
 101   1.0000      -0.079365        -2.1596
 102   1.0000      -0.077751        -2.1157
 103   1.0000      -0.066690        -1.8147
 104   1.0000      -0.048035        -1.3071
 105   1.0000      -0.037672        -1.0251
 106   1.0000      -0.035662        -0.9704
 107   1.0000      -0.033825        -0.9204
 108   1.0000      -0.031636        -0.8609
 109   1.0000      -0.011822        -0.3217
 110   1.0000      -0.003257        -0.0886
 111   1.0000      -0.001824        -0.0496
 112   1.0000       0.006887         0.1874
 113   1.0000       0.011589         0.3154
 114   1.0000       0.017175         0.4674
 115   1.0000       0.035456         0.9648
 116   1.0000       0.061366         1.6699
 117   0.0000       0.186482         5.0744
 118   0.0000       0.194623         5.2960
 119   0.0000       0.194911         5.3038
 120   0.0000       0.196764         5.3542
 121   0.0000       0.212398         5.7796

                 SPIN DOWN ORBITALS
  NO   OCC          E(Eh)            E(eV)
   0   1.0000    -196.639313     -5350.8277
   1   1.0000     -88.674208     -2412.9479
   2   1.0000     -88.674132     -2412.9458
   3   1.0000     -88.672073     -2412.8898
   4   1.0000     -88.672065     -2412.8896
   5   1.0000     -88.611194     -2411.2332
   6   1.0000     -88.611188     -2411.2330
   7   1.0000     -88.611177     -2411.2327
   8   1.0000     -88.611129     -2411.2314
   9   1.0000     -22.000304      -598.6587
  10   1.0000     -18.859912      -513.2043
  11   1.0000     -18.516672      -503.8643
  12   1.0000     -18.500517      -503.4247
  13   1.0000     -18.499857      -503.4067
  14   1.0000     -10.025298      -272.8022
  15   1.0000     -10.025269      -272.8014
  16   1.0000     -10.017245      -272.5831
  17   1.0000     -10.017237      -272.5829
  18   1.0000     -10.015608      -272.5385
  19   1.0000     -10.007787      -272.3257
  20   1.0000      -9.990084      -271.8440
  21   1.0000      -9.989368      -271.8245
  22   1.0000      -9.988813      -271.8094
  23   1.0000      -9.988110      -271.7903
  24   1.0000      -7.727905      -210.2870
  25   1.0000      -7.727835      -210.2851
  26   1.0000      -7.725824      -210.2304
  27   1.0000      -7.725811      -210.2300
  28   1.0000      -7.665665      -208.5933
  29   1.0000      -7.665651      -208.5930
  30   1.0000      -7.665629      -208.5924
  31   1.0000      -7.665591      -208.5913
  32   1.0000      -5.693096      -154.9170
  33   1.0000      -5.693026      -154.9151
  34   1.0000      -5.690937      -154.8583
  35   1.0000      -5.690918      -154.8577
  36   1.0000      -5.689267      -154.8128
  37   1.0000      -5.689195      -154.8109
  38   1.0000      -5.687174      -154.7559
  39   1.0000      -5.687170      -154.7558
  40   1.0000      -5.682689      -154.6338
  41   1.0000      -5.682622      -154.6320
  42   1.0000      -5.680649      -154.5783
  43   1.0000      -5.680647      -154.5783
  44   1.0000      -5.630509      -153.2139
  45   1.0000      -5.630485      -153.2133
  46   1.0000      -5.630478      -153.2131
  47   1.0000      -5.630424      -153.2116
  48   1.0000      -5.624338      -153.0460
  49   1.0000      -5.624334      -153.0459
  50   1.0000      -5.624307      -153.0452
  51   1.0000      -5.624271      -153.0442
  52   1.0000      -5.623649      -153.0273
  53   1.0000      -5.623642      -153.0271
  54   1.0000      -5.623615      -153.0264
  55   1.0000      -5.623597      -153.0259
  56   1.0000      -2.364516       -64.3418
  57   1.0000      -1.431273       -38.9469
  58   1.0000      -1.377037       -37.4711
  59   1.0000      -1.376427       -37.4545
  60   1.0000      -0.650955       -17.7134
  61   1.0000      -0.645463       -17.5640
  62   1.0000      -0.625052       -17.0085
  63   1.0000      -0.595318       -16.1994
  64   1.0000      -0.593564       -16.1517
  65   1.0000      -0.576045       -15.6750
  66   1.0000      -0.575576       -15.6622
  67   1.0000      -0.494294       -13.4504
  68   1.0000      -0.490584       -13.3495
  69   1.0000      -0.486582       -13.2406
  70   1.0000      -0.484830       -13.1929
  71   1.0000      -0.419941       -11.4272
  72   1.0000      -0.415181       -11.2976
  73   1.0000      -0.414746       -11.2858
  74   1.0000      -0.409481       -11.1425
  75   1.0000      -0.374212       -10.1828
  76   1.0000      -0.369834       -10.0637
  77   1.0000      -0.303728        -8.2649
  78   1.0000      -0.297862        -8.1052
  79   1.0000      -0.277022        -7.5382
  80   1.0000      -0.276289        -7.5182
  81   1.0000      -0.262416        -7.1407
  82   1.0000      -0.258754        -7.0410
  83   1.0000      -0.252758        -6.8779
  84   1.0000      -0.243979        -6.6390
  85   1.0000      -0.206514        -5.6195
  86   1.0000      -0.203043        -5.5251
  87   1.0000      -0.198852        -5.4110
  88   1.0000      -0.196881        -5.3574
  89   1.0000      -0.184403        -5.0179
  90   1.0000      -0.179222        -4.8769
  91   1.0000      -0.171227        -4.6593
  92   1.0000      -0.148587        -4.0433
  93   1.0000      -0.141633        -3.8540
  94   1.0000      -0.140477        -3.8226
  95   1.0000      -0.135007        -3.6737
  96   1.0000      -0.129942        -3.5359
  97   1.0000      -0.094209        -2.5636
  98   1.0000      -0.093755        -2.5512
  99   1.0000      -0.085922        -2.3381
 100   1.0000      -0.081258        -2.2111
 101   1.0000      -0.079049        -2.1510
 102   1.0000      -0.077740        -2.1154
 103   1.0000      -0.067549        -1.8381
 104   1.0000      -0.044001        -1.1973
 105   1.0000      -0.036850        -1.0027
 106   1.0000      -0.035913        -0.9772
 107   1.0000      -0.032920        -0.8958
 108   1.0000      -0.031620        -0.8604
 109   1.0000      -0.010909        -0.2969
 110   1.0000      -0.004546        -0.1237
 111   1.0000      -0.000743        -0.0202
 112   1.0000       0.007638         0.2078
 113   1.0000       0.012468         0.3393
 114   1.0000       0.035724         0.9721
 115   1.0000       0.060591         1.6488
 116   0.0000       0.186461         5.0739
 117   0.0000       0.187508         5.1024
 118   0.0000       0.195052         5.3076
 119   0.0000       0.195072         5.3082
 120   0.0000       0.196972         5.3599

MULLIKEN ATOMIC CHARGES AND SPIN POPULATIONS
--------------------------------------------
   0 V :    0.448900    1.199371
   1 S :   -0.257674   -0.024187
   2 S :   -0.255806   -0.024098
   3 S :   -0.258025   -0.024158
   4 S :   -0.255904   -0.024002
   5 O :   -0.506839   -0.138456
   6 C :   -0.118734    0.008822
   7 C :   -0.117485    0.008802
   8 C :   -0.122090    0.008842
   9 C :   -0.122562    0.008794
  10 S :   -0.056670   -0.000179
  11 S :   -0.056606   -0.000215
  12 S :   -0.081391   -0.000239
  13 S :   -0.081516   -0.000271
  14 C :   -0.351468    0.000269
  15 C :   -0.363070    0.000233
  16 C :   -0.350939    0.000252
  17 C :   -0.361875    0.000254
  18 C :   -0.050852    0.000148
  19 H :    0.154920   -0.000108
  20 H :    0.103428    0.000029
  21 H :    0.044201    0.000028
  22 H :    0.082187    0.000028
  23 H :    0.103437    0.000030
  24 H :    0.155229   -0.000109
  25 C :    0.012994    0.000168
  26 H :    0.094940    0.000057
  27 H :    0.167026   -0.000103
  28 H :    0.092621    0.000031
  29 H :    0.047086    0.000016
  30 H :    0.167444   -0.000102
  31 H :    0.095093    0.000055
Sum of atomic charges         :   -2.0000000

LOEWDIN ATOMIC CHARGES AND SPIN POPULATIONS
-------------------------------------------
   0 V :   -0.242968    1.153274
   1 S :    0.086563   -0.016374
   2 S :    0.086948   -0.016299
   3 S :    0.086304   -0.016335
   4 S :    0.086744   -0.016263
   5 O :   -0.350864   -0.123942
   6 C :   -0.556415    0.009936
   7 C :   -0.555902    0.009891
   8 C :   -0.562185    0.009869
   9 C :   -0.562530    0.009885
  10 S :    0.326014   -0.001044
  11 S :    0.325859   -0.001066
  12 S :    0.306077   -0.001103
  13 S :    0.306140   -0.001120
  14 C :   -0.287178    0.000166
  15 C :   -0.286345    0.000178
  16 C :   -0.287315    0.000157
  17 C :   -0.286318    0.000191
  18 C :   -0.182648   -0.000030
  19 H :    0.069469   -0.000025
  20 H :    0.048391    0.000009
  21 H :    0.048271    0.000017
  22 H :    0.056700    0.000013
  23 H :    0.048397    0.000010
  24 H :    0.069591   -0.000025
  25 C :   -0.183588   -0.000020
  26 H :    0.056351    0.000027
  27 H :    0.081853   -0.000018
  28 H :    0.063593    0.000010
  29 H :    0.052581    0.000020
  30 H :    0.082005   -0.000018
  31 H :    0.056406    0.000026

  Mayer bond orders larger than 0.100000
B(  0-V ,  1-S ) :   0.7877 B(  0-V ,  2-S ) :   0.7902 B(  0-V ,  3-S ) :   0.7897
B(  0-V ,  4-S ) :   0.7877 B(  0-V ,  5-O ) :   2.1081 B(  1-S ,  8-C ) :   1.1329
B(  2-S ,  6-C ) :   1.1357 B(  3-S ,  9-C ) :   1.1316 B(  4-S ,  7-C ) :   1.1367
B(  6-C ,  7-C ) :   1.5079 B(  6-C , 10-S ) :   0.9607 B(  7-C , 11-S ) :   0.9607
B(  8-C ,  9-C ) :   1.4853 B(  8-C , 13-S ) :   0.9729 B(  9-C , 12-S ) :   0.9731
B( 10-S , 16-C ) :   1.0013 B( 11-S , 14-C ) :   1.0013 B( 12-S , 15-C ) :   0.9834
B( 13-S , 17-C ) :   0.9836 B( 14-C , 18-C ) :   0.8823 B( 14-C , 23-H ) :   0.9731
B( 14-C , 24-H ) :   0.9753 B( 15-C , 25-C ) :   0.8852 B( 15-C , 30-H ) :   0.9727
B( 15-C , 31-H ) :   0.9752 B( 16-C , 18-C ) :   0.8822 B( 16-C , 19-H ) :   0.9753
B( 16-C , 20-H ) :   0.9732 B( 17-C , 25-C ) :   0.8857 B( 17-C , 26-H ) :   0.9752
B( 17-C , 27-H ) :   0.9727 B( 18-C , 21-H ) :   0.9517 B( 18-C , 22-H ) :   0.9711
B( 25-C , 28-H ) :   0.9614 B( 25-C , 29-H ) :   0.9517

FINAL SINGLE POINT ENERGY     -4592.684290900345

DIPOLE MOMENT
-------------
                                X             Y             Z
Electronic contribution:     16.73916      10.22052      16.66641
Nuclear contribution   :    -18.73885     -11.49754     -18.67818
                        -----------------------------------------
Total Dipole Moment    :     -1.99969      -1.27702      -2.01178
                        -----------------------------------------
Magnitude (a.u.)       :      3.11075
Magnitude (Debye)      :      7.90690

Rotational constants in cm-1:     0.012778     0.002549     0.002431
Rotational constants in MHz :   383.074925    76.416927    72.874030

                             ****ORCA TERMINATED NORMALLY****
TOTAL RUN TIME: 0 days 0 hours 27 minutes 29 seconds 567 msec
