                         Program Version 5.0.4 -  RELEASE  -
|  1> ! nofrozencore ReducedPop printbasis
|  2> ! B3LYP TZVP
|  3>
|  4> %basis
|  5> newgto V "CP(PPP)" end
|  6> end
|  7>
|  8> %pal
|  9> nprocs 4
| 10> end
| 11>
| 12> % sym SymThresh 1e-2 end
| 13> * xyz -2 2
| 14> V 0.35298984564250857 -1.0086518924733314 -0.3195863458507654
| 15> S -1.4255155092442946 -1.3332514951149559 1.334751075775447
| 16> S -1.4338570977290674 -0.31605532604765146 -1.844495096714244
| 17> S 1.6636382482829264 -0.3357124263751593 1.6369916018307544
| 18> S 1.6651618079191024 0.653969496911527 -1.553127031451024
| 19> O 0.8551928379298277 -2.45494400699325 -0.7727430161803155
| 20> C -0.5900803519433225 0.5667851925938497 -3.1230155002018156
| 21> C 0.701748268577154 0.9724091751162599 -3.0007103999940883
| 22> C -0.5708294592981309 -1.3424179132352982 2.88238549161669
| 23> C 0.7168558594927992 -0.9267544664437339 3.0086579762230254
| 24> S -1.585483119819558 0.9126852767771305 -4.587376343741866
| 25> S 1.5553417249110901 1.9047377114198882 -4.288090294205513
| 26> S 1.5812330910461505 -0.8991636268141148 4.59214521558989
| 27> S -1.5527566546642775 -1.9119667643072407 4.285263630417423
| 28> C 0.6720955885164344 3.533480415185014 -4.287910737022833
| 29> C 0.6663328201396427 0.3947870328308803 5.519484323171081
| 30> C -1.8060181749054167 2.750952731390797 -4.5262773513731815
| 31> C -1.7400635918828944 -0.3831161653777236 5.284825472882228
| 32> C -0.6380141621397898 3.576146956222467 -5.094220908315112
| 33> H -1.9791313780735413 2.9919334884616915 -3.581466264992199
| 34> H -2.545313690464256 2.9141134267893865 -5.004492211146106
| 35> H -0.9534331684188977 4.587084634407658 -5.133330927446221
| 36> H -0.44575472797831905 3.269385366865677 -6.0868948717463125
| 37> H 1.2530071458846967 4.114170797616802 -4.636205079258252
| 38> H 0.5096375393481704 3.774943968666793 -3.3434977999416033
| 39> C -0.6087278067223965 -0.015472190915437002 6.212920745238926
| 40> H -2.9467614142941922 -0.6199579824452112 6.067532504836077
| 41> H -2.0109472181982824 0.5668383292503228 4.474913467207415
| 42> H -0.3864525125038498 -0.9158650233674283 6.920907567126267
| 43> H -0.9641066493139924 0.873301403241673 6.906308412666254
| 44> H 0.4704574366879343 1.3735170200140137 4.71168598816961
| 45> H 1.633396153083137 0.864826155878078 6.521183655462584
| 46> *
| 47>
| 48> % eprnmr
| 49> gtensor true
| 50> Nuclei = all H {aiso,adip,aorb,fgrad,rho}
| 51> Nuclei = all V {aiso,adip,aorb,fgrad,rho}
| 52> end
| 53>
| 54>                          ****END OF INPUT****

CARTESIAN COORDINATES (ANGSTROEM)
---------------------------------
  V      0.353358   -1.009700   -0.320004
  S     -1.425147   -1.334300    1.334334
  S     -1.433489   -0.317103   -1.844913
  S      1.664007   -0.336761    1.636574
  S      1.665530    0.652921   -1.553545
  O      0.855561   -2.455992   -0.773160
  C     -0.589712    0.565737   -3.123433
  C      0.702117    0.971361   -3.001128
  C     -0.570461   -1.343466    2.881968
  C      0.717224   -0.927803    3.008241
  S     -1.585115    0.911637   -4.587794
  S      1.555710    1.903690   -4.288508
  S      1.581602   -0.900212    4.591728
  S     -1.552388   -1.913015    4.284846
  C      0.672464    3.532432   -4.288328
  C      0.666701    0.393739    5.519067
  C     -1.805650    2.749905   -4.526695
  C     -1.739695   -0.384164    5.284408
  C     -0.637646    3.575099   -5.094638
  H     -1.978763    2.990885   -3.581884
  H     -2.544945    2.913065   -5.004910
  H     -0.953065    4.586036   -5.133748
  H     -0.445386    3.268337   -6.087312
  H      1.253376    4.113123   -4.636623
  H      0.510006    3.773896   -3.343915
  C     -0.608359   -0.016520    6.212503
  H     -2.946393   -0.621006    6.067115
  H     -2.010579    0.565790    4.474496
  H     -0.386084   -0.916913    6.920490
  H     -0.963738    0.872253    6.905891
  H      0.470826    1.372469    4.711269
  H      1.633765    0.863778    6.520766

 Total Charge           Charge          ....   -2
 Multiplicity           Mult            ....    2
 Number of Electrons    NEL             ....  233
 Basis Dimension        Dim             ....  517

ORBITAL ENERGIES
----------------
                 SPIN UP ORBITALS
  NO   OCC          E(Eh)            E(eV)
   0   1.0000    -196.643392     -5350.9387
   1   1.0000     -88.685169     -2413.2461
   2   1.0000     -88.685015     -2413.2419
   3   1.0000     -88.676325     -2413.0055
   4   1.0000     -88.676252     -2413.0035
   5   1.0000     -88.617385     -2411.4016
   6   1.0000     -88.617327     -2411.4001
   7   1.0000     -88.613891     -2411.3066
   8   1.0000     -88.613853     -2411.3055
   9   1.0000     -22.019180      -599.1723
  10   1.0000     -18.860425      -513.2183
  11   1.0000     -18.526005      -504.1182
  12   1.0000     -18.520230      -503.9611
  13   1.0000     -18.520193      -503.9601
  14   1.0000     -10.065348      -273.8921
  15   1.0000     -10.064354      -273.8650
  16   1.0000     -10.027812      -272.8706
  17   1.0000      -9.998641      -272.0769
  18   1.0000      -9.997922      -272.0573
  19   1.0000      -9.995190      -271.9830
  20   1.0000      -9.993242      -271.9299
  21   1.0000      -9.992521      -271.9103
  22   1.0000      -9.984323      -271.6872
  23   1.0000      -9.983785      -271.6726
  24   1.0000      -7.738477      -210.5747
  25   1.0000      -7.738352      -210.5713
  26   1.0000      -7.730019      -210.3445
  27   1.0000      -7.729968      -210.3431
  28   1.0000      -7.671741      -208.7587
  29   1.0000      -7.671713      -208.7579
  30   1.0000      -7.668335      -208.6660
  31   1.0000      -7.668296      -208.6649
  32   1.0000      -5.703835      -155.2092
  33   1.0000      -5.703700      -155.2056
  34   1.0000      -5.699811      -155.0997
  35   1.0000      -5.699692      -155.0965
  36   1.0000      -5.695215      -154.9747
  37   1.0000      -5.695161      -154.9732
  38   1.0000      -5.693143      -154.9183
  39   1.0000      -5.693014      -154.9148
  40   1.0000      -5.691381      -154.8703
  41   1.0000      -5.691331      -154.8690
  42   1.0000      -5.684821      -154.6919
  43   1.0000      -5.684765      -154.6903
  44   1.0000      -5.636620      -153.3802
  45   1.0000      -5.636582      -153.3792
  46   1.0000      -5.633162      -153.2861
  47   1.0000      -5.633115      -153.2849
  48   1.0000      -5.630147      -153.2041
  49   1.0000      -5.630104      -153.2029
  50   1.0000      -5.629734      -153.1928
  51   1.0000      -5.629717      -153.1924
  52   1.0000      -5.626797      -153.1129
  53   1.0000      -5.626765      -153.1121
  54   1.0000      -5.626294      -153.0993
  55   1.0000      -5.626268      -153.0985
  56   1.0000      -2.412880       -65.6578
  57   1.0000      -1.454231       -39.5716
  58   1.0000      -1.442679       -39.2573
  59   1.0000      -1.441598       -39.2279
  60   1.0000      -0.653498       -17.7826
  61   1.0000      -0.644994       -17.5512
  62   1.0000      -0.621399       -16.9091
  63   1.0000      -0.598086       -16.2747
  64   1.0000      -0.596270       -16.2253
  65   1.0000      -0.592839       -16.1320
  66   1.0000      -0.571638       -15.5551
  67   1.0000      -0.501698       -13.6519
  68   1.0000      -0.495338       -13.4788
  69   1.0000      -0.493123       -13.4186
  70   1.0000      -0.478039       -13.0081
  71   1.0000      -0.430995       -11.7280
  72   1.0000      -0.430677       -11.7193
  73   1.0000      -0.411100       -11.1866
  74   1.0000      -0.404102       -10.9962
  75   1.0000      -0.383733       -10.4419
  76   1.0000      -0.353459        -9.6181
  77   1.0000      -0.318970        -8.6796
  78   1.0000      -0.282565        -7.6890
  79   1.0000      -0.279698        -7.6110
  80   1.0000      -0.275834        -7.5058
  81   1.0000      -0.258999        -7.0477
  82   1.0000      -0.257858        -7.0167
  83   1.0000      -0.247612        -6.7379
  84   1.0000      -0.227518        -6.1911
  85   1.0000      -0.204743        -5.5713
  86   1.0000      -0.200133        -5.4459
  87   1.0000      -0.192401        -5.2355
  88   1.0000      -0.191080        -5.1996
  89   1.0000      -0.184205        -5.0125
  90   1.0000      -0.169388        -4.6093
  91   1.0000      -0.161389        -4.3916
  92   1.0000      -0.153629        -4.1805
  93   1.0000      -0.152709        -4.1554
  94   1.0000      -0.147796        -4.0217
  95   1.0000      -0.145260        -3.9527
  96   1.0000      -0.135221        -3.6795
  97   1.0000      -0.100817        -2.7434
  98   1.0000      -0.097832        -2.6621
  99   1.0000      -0.093705        -2.5498
 100   1.0000      -0.086447        -2.3523
 101   1.0000      -0.083663        -2.2766
 102   1.0000      -0.083385        -2.2690
 103   1.0000      -0.072882        -1.9832
 104   1.0000      -0.053361        -1.4520
 105   1.0000      -0.042293        -1.1509
 106   1.0000      -0.041751        -1.1361
 107   1.0000      -0.038184        -1.0390
 108   1.0000      -0.034763        -0.9459
 109   1.0000      -0.016364        -0.4453
 110   1.0000      -0.008563        -0.2330
 111   1.0000      -0.006224        -0.1694
 112   1.0000       0.002909         0.0792
 113   1.0000       0.007575         0.2061
 114   1.0000       0.012958         0.3526
 115   1.0000       0.029876         0.8130
 116   1.0000       0.056281         1.5315
 117   0.0000       0.154025         4.1912
 118   0.0000       0.175509         4.7759
 119   0.0000       0.192016         5.2250
 120   0.0000       0.201764         5.4903
 121   0.0000       0.205500         5.5919

                 SPIN DOWN ORBITALS
  NO   OCC          E(Eh)            E(eV)
   0   1.0000    -196.643534     -5350.9426
   1   1.0000     -88.685182     -2413.2465
   2   1.0000     -88.685028     -2413.2423
   3   1.0000     -88.676338     -2413.0058
   4   1.0000     -88.676266     -2413.0039
   5   1.0000     -88.617541     -2411.4059
   6   1.0000     -88.617483     -2411.4043
   7   1.0000     -88.614054     -2411.3110
   8   1.0000     -88.614016     -2411.3100
   9   1.0000     -22.004512      -598.7732
  10   1.0000     -18.864009      -513.3158
  11   1.0000     -18.520873      -503.9786
  12   1.0000     -18.504746      -503.5397
  13   1.0000     -18.504058      -503.5210
  14   1.0000     -10.065344      -273.8919
  15   1.0000     -10.064349      -273.8649
  16   1.0000     -10.027811      -272.8706
  17   1.0000      -9.998385      -272.0699
  18   1.0000      -9.997668      -272.0504
  19   1.0000      -9.995190      -271.9830
  20   1.0000      -9.992987      -271.9230
  21   1.0000      -9.992268      -271.9034
  22   1.0000      -9.984320      -271.6872
  23   1.0000      -9.983782      -271.6725
  24   1.0000      -7.738490      -210.5750
  25   1.0000      -7.738365      -210.5716
  26   1.0000      -7.730033      -210.3449
  27   1.0000      -7.729982      -210.3435
  28   1.0000      -7.671886      -208.7626
  29   1.0000      -7.671858      -208.7619
  30   1.0000      -7.668486      -208.6701
  31   1.0000      -7.668447      -208.6691
  32   1.0000      -5.703851      -155.2097
  33   1.0000      -5.703717      -155.2060
  34   1.0000      -5.699831      -155.1003
  35   1.0000      -5.699712      -155.0971
  36   1.0000      -5.695232      -154.9752
  37   1.0000      -5.695178      -154.9737
  38   1.0000      -5.693159      -154.9187
  39   1.0000      -5.693030      -154.9152
  40   1.0000      -5.691401      -154.8709
  41   1.0000      -5.691351      -154.8695
  42   1.0000      -5.684839      -154.6923
  43   1.0000      -5.684782      -154.6908
  44   1.0000      -5.636789      -153.3848
  45   1.0000      -5.636751      -153.3838
  46   1.0000      -5.633336      -153.2909
  47   1.0000      -5.633289      -153.2896
  48   1.0000      -5.630521      -153.2143
  49   1.0000      -5.630481      -153.2132
  50   1.0000      -5.629872      -153.1966
  51   1.0000      -5.629853      -153.1961
  52   1.0000      -5.627197      -153.1238
  53   1.0000      -5.627166      -153.1230
  54   1.0000      -5.626433      -153.1030
  55   1.0000      -5.626405      -153.1023
  56   1.0000      -2.368703       -64.4557
  57   1.0000      -1.435399       -39.0592
  58   1.0000      -1.381283       -37.5866
  59   1.0000      -1.380620       -37.5686
  60   1.0000      -0.653467       -17.7817
  61   1.0000      -0.644923       -17.5493
  62   1.0000      -0.629076       -17.1180
  63   1.0000      -0.597875       -16.2690
  64   1.0000      -0.596086       -16.2203
  65   1.0000      -0.592839       -16.1320
  66   1.0000      -0.571624       -15.5547
  67   1.0000      -0.501677       -13.6513
  68   1.0000      -0.495362       -13.4795
  69   1.0000      -0.493157       -13.4195
  70   1.0000      -0.478119       -13.0103
  71   1.0000      -0.431121       -11.7314
  72   1.0000      -0.430920       -11.7259
  73   1.0000      -0.411300       -11.1920
  74   1.0000      -0.404128       -10.9969
  75   1.0000      -0.383760       -10.4426
  76   1.0000      -0.353440        -9.6176
  77   1.0000      -0.318963        -8.6794
  78   1.0000      -0.282541        -7.6883
  79   1.0000      -0.279663        -7.6100
  80   1.0000      -0.275818        -7.5054
  81   1.0000      -0.258746        -7.0408
  82   1.0000      -0.257831        -7.0159
  83   1.0000      -0.247457        -6.7336
  84   1.0000      -0.227520        -6.1911
  85   1.0000      -0.204732        -5.5711
  86   1.0000      -0.199867        -5.4387
  87   1.0000      -0.192338        -5.2338
  88   1.0000      -0.190404        -5.1812
  89   1.0000      -0.182726        -4.9722
  90   1.0000      -0.169101        -4.6015
  91   1.0000      -0.161316        -4.3896
  92   1.0000      -0.152976        -4.1627
  93   1.0000      -0.152397        -4.1469
  94   1.0000      -0.147583        -4.0159
  95   1.0000      -0.145040        -3.9467
  96   1.0000      -0.135058        -3.6751
  97   1.0000      -0.099314        -2.7025
  98   1.0000      -0.097362        -2.6494
  99   1.0000      -0.093719        -2.5502
 100   1.0000      -0.086558        -2.3554
 101   1.0000      -0.085278        -2.3205
 102   1.0000      -0.083221        -2.2646
 103   1.0000      -0.074135        -2.0173
 104   1.0000      -0.049386        -1.3439
 105   1.0000      -0.042067        -1.1447
 106   1.0000      -0.040960        -1.1146
 107   1.0000      -0.037496        -1.0203
 108   1.0000      -0.034661        -0.9432
 109   1.0000      -0.015457        -0.4206
 110   1.0000      -0.009599        -0.2612
 111   1.0000      -0.005474        -0.1489
 112   1.0000       0.003640         0.0990
 113   1.0000       0.008525         0.2320
 114   1.0000       0.030115         0.8195
 115   1.0000       0.055495         1.5101
 116   0.0000       0.153910         4.1881
 117   0.0000       0.175849         4.7851
 118   0.0000       0.182035         4.9534
 119   0.0000       0.193341         5.2611
 120   0.0000       0.202379         5.5070

MULLIKEN ATOMIC CHARGES AND SPIN POPULATIONS
--------------------------------------------
   0 V :    0.445935    1.199220
   1 S :   -0.243412   -0.023338
   2 S :   -0.254117   -0.024842
   3 S :   -0.243633   -0.023279
   4 S :   -0.254385   -0.024767
   5 O :   -0.504415   -0.139055
   6 C :   -0.115294    0.008934
   7 C :   -0.113703    0.008948
   8 C :   -0.121142    0.008890
   9 C :   -0.122351    0.008813
  10 S :   -0.058832   -0.000186
  11 S :   -0.058962   -0.000223
  12 S :   -0.008837   -0.000127
  13 S :   -0.009990   -0.000158
  14 C :   -0.377351    0.000312
  15 C :   -0.279501    0.000284
  16 C :   -0.375504    0.000295
  17 C :   -0.281449    0.000303
  18 C :   -0.120053    0.000116
  19 H :    0.160499   -0.000103
  20 H :    0.158243    0.000018
  21 H :    0.048492    0.000028
  22 H :    0.084044    0.000017
  23 H :    0.159256    0.000017
  24 H :    0.161316   -0.000105
  25 C :   -0.048546    0.000194
  26 H :    0.005329   -0.000013
  27 H :    0.121158   -0.000121
  28 H :    0.076791    0.000011
  29 H :    0.048929    0.000055
  30 H :    0.120050   -0.000119
  31 H :    0.001434   -0.000019
Sum of atomic charges         :   -2.0000000

LOEWDIN ATOMIC CHARGES AND SPIN POPULATIONS
-------------------------------------------
   0 V :   -0.242495    1.153224
   1 S :    0.095289   -0.015739
   2 S :    0.087930   -0.016875
   3 S :    0.094930   -0.015683
   4 S :    0.087692   -0.016852
   5 O :   -0.349449   -0.124488
   6 C :   -0.551340    0.010008
   7 C :   -0.550744    0.009965
   8 C :   -0.552216    0.009994
   9 C :   -0.552795    0.010014
  10 S :    0.336746   -0.001046
  11 S :    0.336612   -0.001069
  12 S :    0.351485   -0.000973
  13 S :    0.350768   -0.000987
  14 C :   -0.237839    0.000163
  15 C :   -0.328355    0.000179
  16 C :   -0.239119    0.000155
  17 C :   -0.328446    0.000188
  18 C :   -0.152826   -0.000040
  19 H :    0.049829   -0.000014
  20 H :    0.002402    0.000005
  21 H :    0.041085    0.000014
  22 H :    0.048049    0.000012
  23 H :    0.001309    0.000006
  24 H :    0.049567   -0.000014
  25 C :   -0.227225   -0.000029
  26 H :    0.040183   -0.000017
  27 H :    0.086870   -0.000060
  28 H :    0.065899    0.000012
  29 H :    0.060894    0.000027
  30 H :    0.087242   -0.000060
  31 H :    0.038068   -0.000021

  Mayer bond orders larger than 0.100000
B(  0-V ,  1-S ) :   0.7807 B(  0-V ,  2-S ) :   0.7975 B(  0-V ,  3-S ) :   0.7830
B(  0-V ,  4-S ) :   0.7950 B(  0-V ,  5-O ) :   2.1098 B(  1-S ,  8-C ) :   1.1462
B(  2-S ,  6-C ) :   1.1344 B(  3-S ,  9-C ) :   1.1448 B(  4-S ,  7-C ) :   1.1357
B(  6-C ,  7-C ) :   1.5308 B(  6-C , 10-S ) :   0.9575 B(  7-C , 11-S ) :   0.9574
B(  8-C ,  9-C ) :   1.4767 B(  8-C , 13-S ) :   0.9535 B(  9-C , 12-S ) :   0.9537
B( 10-S , 16-C ) :   0.9907 B( 11-S , 14-C ) :   0.9901 B( 12-S , 15-C ) :   1.0033
B( 13-S , 17-C ) :   1.0038 B( 14-C , 18-C ) :   0.8704 B( 14-C , 23-H ) :   0.9747
B( 14-C , 24-H ) :   0.9885 B( 15-C , 25-C ) :   0.8846 B( 15-C , 30-H ) :   0.9430
B( 15-C , 31-H ) :   0.9172 B( 16-C , 18-C ) :   0.8710 B( 16-C , 19-H ) :   0.9884
B( 16-C , 20-H ) :   0.9746 B( 17-C , 25-C ) :   0.8831 B( 17-C , 26-H ) :   0.9196
B( 17-C , 27-H ) :   0.9439 B( 18-C , 21-H ) :   0.9592 B( 18-C , 22-H ) :   0.9821
B( 25-C , 28-H ) :   0.9549 B( 25-C , 29-H ) :   0.9382

FINAL SINGLE POINT ENERGY     -4592.517406066044

DIPOLE MOMENT
-------------
                                X             Y             Z
Electronic contribution:      8.59199     -24.28969      -8.63353
Nuclear contribution   :     -9.47882      26.98211       8.80918
                        -----------------------------------------
Total Dipole Moment    :     -0.88683       2.69242       0.17565
                        -----------------------------------------
Magnitude (a.u.)       :      2.84015
Magnitude (Debye)      :      7.21909

Rotational constants in cm-1:     0.012762     0.002548     0.002431
Rotational constants in MHz :   382.609992    76.387501    72.870078

                             ****ORCA TERMINATED NORMALLY****
TOTAL RUN TIME: 0 days 0 hours 42 minutes 55 seconds 360 msec
