                         Program Version 5.0.4 -  RELEASE  -
|  1> ! nofrozencore ReducedPop printbasis
|  2> ! B3LYP TZVP
|  3>
|  4> %basis
|  5> newgto V "CP(PPP)" end
|  6> end
|  7>
|  8> %pal
|  9> nprocs 4
| 10> end
| 11>
| 12> % sym SymThresh 1e-2 end
| 13> * xyz -2 2
| 14> V 0.19305801746119058 -1.0501544510135026 0.12219203790543708
| 15> S -1.0471202311377579 -0.38712043436758903 2.1921845954713888
| 16> S -1.8996994753959904 -0.9284915827058814 -1.2398111048395744
| 17> S 2.0529416109128675 0.09870630496292003 1.3348964433322337
| 18> S 1.2070671192635605 -0.4807034193586792 -2.094463592239942
| 19> O 0.476889866401294 -2.602112496765746 0.308216825829305
| 20> C -1.3893029818972076 -0.8267356627629108 -2.936726678376368
| 21> C -0.09168121897567748 -0.6377018360015604 -3.2933954609553604
| 22> C 0.17666617591598122 0.17839396589082335 3.3458726467906645
| 23> C 1.4720912753995108 0.38084999427980276 2.9881209504535984
| 24> S -2.7100751432383046 -0.9559767448186146 -4.174744396021975
| 25> S 0.4073898919120826 -0.49310259910790366 -5.032587867940001
| 26> S 2.7027513286642786 0.9994820725474539 4.170020197434747
| 27> S -0.41080096629452156 0.5150466439732418 5.03044103224403
| 28> C -0.33368128748141335 1.124483130472173 -5.5465057378737335
| 29> C 2.155814822643861 2.7435373100777367 4.464558294451696
| 30> C -2.8008657299905053 0.7572957271813456 -4.87123042336591
| 31> C -0.3083354750839548 2.3598374895488727 5.145226476601437
| 32> C -1.8002131578062217 1.0886375717587393 -5.97946986618593
| 33> H -2.703220291481758 1.450211271514765 -4.03171580225824
| 34> H -3.8195660569079837 0.8460965417164625 -5.261675945957888
| 35> H -2.058973177221654 2.082583326499507 -6.384470558814882
| 36> H -1.9179348350568002 0.3697261665608264 -6.800445049171184
| 37> H 0.2850811948958633 1.4615148392839037 -6.384171171991529
| 38> H -0.1841376659448404 1.8222781446617875 -4.718696926961551
| 39> C 1.0588960182737133 2.93855579523338 5.5122208967873725
| 40> H -1.0368191273761795 2.631629146253261 5.91571909334404
| 41> H -0.6648466248523555 2.760533382961285 4.19283998078829
| 42> H 1.3895577484923625 2.507865330795857 6.466201554436887
| 43> H 0.9351463989355304 4.023294075027463 5.676350211375071
| 44> H 1.855134956579143 3.1527856467734403 3.4967131203029047
| 45> H 3.061109426976331 3.2698019773595366 4.78334112108339
| 46> *
| 47>
| 48> % eprnmr
| 49> gtensor true
| 50> Nuclei = all H {aiso,adip,aorb,fgrad,rho}
| 51> Nuclei = all V {aiso,adip,aorb,fgrad,rho}
| 52> end
| 53>
| 54>                          ****END OF INPUT****

CARTESIAN COORDINATES (ANGSTROEM)
---------------------------------
  V      0.193245   -1.051325    0.122250
  S     -1.046933   -0.388291    2.192243
  S     -1.899512   -0.929662   -1.239753
  S      2.053129    0.097536    1.334955
  S      1.207254   -0.481874   -2.094405
  O      0.477077   -2.603283    0.308275
  C     -1.389116   -0.827906   -2.936668
  C     -0.091494   -0.638872   -3.293337
  C      0.176853    0.177224    3.345931
  C      1.472279    0.379680    2.988179
  S     -2.709888   -0.957147   -4.174686
  S      0.407577   -0.494273   -5.032530
  S      2.702939    0.998312    4.170078
  S     -0.410614    0.513876    5.030499
  C     -0.333494    1.123313   -5.546448
  C      2.156002    2.742367    4.464617
  C     -2.800678    0.756125   -4.871172
  C     -0.308148    2.358667    5.145285
  C     -1.800026    1.087467   -5.979412
  H     -2.703033    1.449041   -4.031658
  H     -3.819379    0.844926   -5.261618
  H     -2.058786    2.081413   -6.384412
  H     -1.917748    0.368556   -6.800387
  H      0.285268    1.460344   -6.384113
  H     -0.183950    1.821108   -4.718639
  C      1.059083    2.937385    5.512279
  H     -1.036632    2.630459    5.915777
  H     -0.664659    2.759363    4.192898
  H      1.389745    2.506695    6.466260
  H      0.935334    4.022124    5.676408
  H      1.855322    3.151615    3.496771
  H      3.061297    3.268632    4.783399

 Total Charge           Charge          ....   -2
 Multiplicity           Mult            ....    2
 Number of Electrons    NEL             ....  233
 Basis Dimension        Dim             ....  517

ORBITAL ENERGIES
----------------
                 SPIN UP ORBITALS
  NO   OCC          E(Eh)            E(eV)
   0   1.0000    -196.651786     -5351.1672
   1   1.0000     -88.678700     -2413.0701
   2   1.0000     -88.678639     -2413.0684
   3   1.0000     -88.678624     -2413.0680
   4   1.0000     -88.678604     -2413.0675
   5   1.0000     -88.614960     -2411.3357
   6   1.0000     -88.614928     -2411.3348
   7   1.0000     -88.614920     -2411.3346
   8   1.0000     -88.614917     -2411.3345
   9   1.0000     -22.026490      -599.3713
  10   1.0000     -18.867547      -513.4121
  11   1.0000     -18.533436      -504.3204
  12   1.0000     -18.527627      -504.1624
  13   1.0000     -18.527446      -504.1574
  14   1.0000     -10.017601      -272.5928
  15   1.0000     -10.017566      -272.5918
  16   1.0000     -10.017505      -272.5902
  17   1.0000     -10.017474      -272.5893
  18   1.0000     -10.007453      -272.3166
  19   1.0000     -10.007373      -272.3145
  20   1.0000      -9.995165      -271.9823
  21   1.0000      -9.995144      -271.9817
  22   1.0000      -9.994438      -271.9625
  23   1.0000      -9.994423      -271.9621
  24   1.0000      -7.732092      -210.4009
  25   1.0000      -7.732030      -210.3992
  26   1.0000      -7.732018      -210.3989
  27   1.0000      -7.732001      -210.3984
  28   1.0000      -7.668840      -208.6797
  29   1.0000      -7.668822      -208.6793
  30   1.0000      -7.668771      -208.6779
  31   1.0000      -7.668767      -208.6778
  32   1.0000      -5.697354      -155.0329
  33   1.0000      -5.697289      -155.0311
  34   1.0000      -5.697277      -155.0308
  35   1.0000      -5.697257      -155.0302
  36   1.0000      -5.693508      -154.9282
  37   1.0000      -5.693457      -154.9268
  38   1.0000      -5.693440      -154.9264
  39   1.0000      -5.693430      -154.9261
  40   1.0000      -5.686808      -154.7459
  41   1.0000      -5.686741      -154.7441
  42   1.0000      -5.686730      -154.7438
  43   1.0000      -5.686719      -154.7435
  44   1.0000      -5.633739      -153.3018
  45   1.0000      -5.633715      -153.3012
  46   1.0000      -5.633688      -153.3004
  47   1.0000      -5.633685      -153.3004
  48   1.0000      -5.627329      -153.1274
  49   1.0000      -5.627300      -153.1266
  50   1.0000      -5.627261      -153.1256
  51   1.0000      -5.627261      -153.1255
  52   1.0000      -5.626846      -153.1143
  53   1.0000      -5.626829      -153.1138
  54   1.0000      -5.626792      -153.1128
  55   1.0000      -5.626777      -153.1124
  56   1.0000      -2.419535       -65.8389
  57   1.0000      -1.462046       -39.7843
  58   1.0000      -1.448897       -39.4265
  59   1.0000      -1.447081       -39.3771
  60   1.0000      -0.644251       -17.5309
  61   1.0000      -0.644205       -17.5297
  62   1.0000      -0.627315       -17.0701
  63   1.0000      -0.594267       -16.1708
  64   1.0000      -0.593947       -16.1621
  65   1.0000      -0.575220       -15.6525
  66   1.0000      -0.575145       -15.6505
  67   1.0000      -0.492512       -13.4019
  68   1.0000      -0.491224       -13.3669
  69   1.0000      -0.486054       -13.2262
  70   1.0000      -0.485477       -13.2105
  71   1.0000      -0.423468       -11.5231
  72   1.0000      -0.422021       -11.4838
  73   1.0000      -0.413128       -11.2418
  74   1.0000      -0.409553       -11.1445
  75   1.0000      -0.376781       -10.2527
  76   1.0000      -0.374487       -10.1903
  77   1.0000      -0.294139        -8.0039
  78   1.0000      -0.293977        -7.9995
  79   1.0000      -0.278615        -7.5815
  80   1.0000      -0.278441        -7.5768
  81   1.0000      -0.260062        -7.0767
  82   1.0000      -0.257482        -7.0064
  83   1.0000      -0.242516        -6.5992
  84   1.0000      -0.240674        -6.5491
  85   1.0000      -0.195584        -5.3221
  86   1.0000      -0.193588        -5.2678
  87   1.0000      -0.193296        -5.2599
  88   1.0000      -0.192648        -5.2422
  89   1.0000      -0.185897        -5.0585
  90   1.0000      -0.185694        -5.0530
  91   1.0000      -0.179272        -4.8782
  92   1.0000      -0.155955        -4.2438
  93   1.0000      -0.150141        -4.0855
  94   1.0000      -0.146017        -3.9733
  95   1.0000      -0.143873        -3.9150
  96   1.0000      -0.142953        -3.8900
  97   1.0000      -0.105383        -2.8676
  98   1.0000      -0.095216        -2.5910
  99   1.0000      -0.095083        -2.5873
 100   1.0000      -0.089102        -2.4246
 101   1.0000      -0.085610        -2.3296
 102   1.0000      -0.085503        -2.3266
 103   1.0000      -0.074740        -2.0338
 104   1.0000      -0.052178        -1.4198
 105   1.0000      -0.041462        -1.1282
 106   1.0000      -0.038567        -1.0495
 107   1.0000      -0.034881        -0.9492
 108   1.0000      -0.029139        -0.7929
 109   1.0000      -0.017686        -0.4813
 110   1.0000      -0.005470        -0.1488
 111   1.0000      -0.002364        -0.0643
 112   1.0000       0.000625         0.0170
 113   1.0000       0.008932         0.2431
 114   1.0000       0.014042         0.3821
 115   1.0000       0.034482         0.9383
 116   1.0000       0.055515         1.5106
 117   0.0000       0.184003         5.0070
 118   0.0000       0.193128         5.2553
 119   0.0000       0.193987         5.2787
 120   0.0000       0.194335         5.2881
 121   0.0000       0.201800         5.4913

                 SPIN DOWN ORBITALS
  NO   OCC          E(Eh)            E(eV)
   0   1.0000    -196.651921     -5351.1708
   1   1.0000     -88.678714     -2413.0705
   2   1.0000     -88.678654     -2413.0688
   3   1.0000     -88.678639     -2413.0684
   4   1.0000     -88.678619     -2413.0679
   5   1.0000     -88.615120     -2411.3400
   6   1.0000     -88.615087     -2411.3391
   7   1.0000     -88.615079     -2411.3389
   8   1.0000     -88.615077     -2411.3388
   9   1.0000     -22.011573      -598.9654
  10   1.0000     -18.871369      -513.5161
  11   1.0000     -18.528105      -504.1754
  12   1.0000     -18.512228      -503.7433
  13   1.0000     -18.510804      -503.7046
  14   1.0000     -10.017601      -272.5928
  15   1.0000     -10.017565      -272.5918
  16   1.0000     -10.017504      -272.5901
  17   1.0000     -10.017473      -272.5893
  18   1.0000     -10.007453      -272.3166
  19   1.0000     -10.007372      -272.3144
  20   1.0000      -9.994946      -271.9763
  21   1.0000      -9.994925      -271.9757
  22   1.0000      -9.994220      -271.9566
  23   1.0000      -9.994205      -271.9561
  24   1.0000      -7.732107      -210.4013
  25   1.0000      -7.732045      -210.3996
  26   1.0000      -7.732034      -210.3993
  27   1.0000      -7.732017      -210.3989
  28   1.0000      -7.668989      -208.6838
  29   1.0000      -7.668970      -208.6833
  30   1.0000      -7.668919      -208.6819
  31   1.0000      -7.668916      -208.6818
  32   1.0000      -5.697374      -155.0334
  33   1.0000      -5.697308      -155.0316
  34   1.0000      -5.697297      -155.0313
  35   1.0000      -5.697276      -155.0308
  36   1.0000      -5.693531      -154.9288
  37   1.0000      -5.693479      -154.9274
  38   1.0000      -5.693463      -154.9270
  39   1.0000      -5.693452      -154.9267
  40   1.0000      -5.686826      -154.7464
  41   1.0000      -5.686759      -154.7446
  42   1.0000      -5.686748      -154.7443
  43   1.0000      -5.686737      -154.7440
  44   1.0000      -5.633908      -153.3064
  45   1.0000      -5.633883      -153.3058
  46   1.0000      -5.633856      -153.3050
  47   1.0000      -5.633852      -153.3049
  48   1.0000      -5.627732      -153.1384
  49   1.0000      -5.627702      -153.1375
  50   1.0000      -5.627664      -153.1365
  51   1.0000      -5.627661      -153.1365
  52   1.0000      -5.626975      -153.1178
  53   1.0000      -5.626956      -153.1173
  54   1.0000      -5.626920      -153.1163
  55   1.0000      -5.626905      -153.1159
  56   1.0000      -2.374681       -64.6184
  57   1.0000      -1.442447       -39.2510
  58   1.0000      -1.387200       -37.7476
  59   1.0000      -1.385061       -37.6894
  60   1.0000      -0.644227       -17.5303
  61   1.0000      -0.644172       -17.5288
  62   1.0000      -0.635524       -17.2935
  63   1.0000      -0.594115       -16.1667
  64   1.0000      -0.593786       -16.1577
  65   1.0000      -0.575236       -15.6530
  66   1.0000      -0.575161       -15.6509
  67   1.0000      -0.492593       -13.4041
  68   1.0000      -0.491319       -13.3695
  69   1.0000      -0.486124       -13.2281
  70   1.0000      -0.485565       -13.2129
  71   1.0000      -0.423767       -11.5313
  72   1.0000      -0.422376       -11.4934
  73   1.0000      -0.413186       -11.2434
  74   1.0000      -0.409697       -11.1484
  75   1.0000      -0.376752       -10.2519
  76   1.0000      -0.374532       -10.1915
  77   1.0000      -0.294126        -8.0036
  78   1.0000      -0.293974        -7.9994
  79   1.0000      -0.278606        -7.5812
  80   1.0000      -0.278439        -7.5767
  81   1.0000      -0.259949        -7.0736
  82   1.0000      -0.257469        -7.0061
  83   1.0000      -0.242427        -6.5968
  84   1.0000      -0.240622        -6.5476
  85   1.0000      -0.195333        -5.3153
  86   1.0000      -0.193575        -5.2674
  87   1.0000      -0.193261        -5.2589
  88   1.0000      -0.192631        -5.2418
  89   1.0000      -0.185863        -5.0576
  90   1.0000      -0.185662        -5.0521
  91   1.0000      -0.177213        -4.8222
  92   1.0000      -0.155383        -4.2282
  93   1.0000      -0.149884        -4.0786
  94   1.0000      -0.145827        -3.9681
  95   1.0000      -0.143628        -3.9083
  96   1.0000      -0.142933        -3.8894
  97   1.0000      -0.104081        -2.8322
  98   1.0000      -0.095881        -2.6090
  99   1.0000      -0.094875        -2.5817
 100   1.0000      -0.091403        -2.4872
 101   1.0000      -0.085516        -2.3270
 102   1.0000      -0.085124        -2.3163
 103   1.0000      -0.076236        -2.0745
 104   1.0000      -0.047054        -1.2804
 105   1.0000      -0.041589        -1.1317
 106   1.0000      -0.037437        -1.0187
 107   1.0000      -0.034139        -0.9290
 108   1.0000      -0.029240        -0.7957
 109   1.0000      -0.016885        -0.4595
 110   1.0000      -0.006604        -0.1797
 111   1.0000      -0.001693        -0.0461
 112   1.0000       0.001944         0.0529
 113   1.0000       0.014829         0.4035
 114   1.0000       0.034436         0.9370
 115   1.0000       0.054636         1.4867
 116   0.0000       0.179419         4.8822
 117   0.0000       0.186760         5.0820
 118   0.0000       0.193667         5.2700
 119   0.0000       0.194452         5.2913
 120   0.0000       0.194986         5.3058

MULLIKEN ATOMIC CHARGES AND SPIN POPULATIONS
--------------------------------------------
   0 V :    0.457661    1.210977
   1 S :   -0.268710   -0.023148
   2 S :   -0.268720   -0.022953
   3 S :   -0.268864   -0.023109
   4 S :   -0.268992   -0.022897
   5 O :   -0.471265   -0.147710
   6 C :   -0.115734    0.007711
   7 C :   -0.114150    0.007563
   8 C :   -0.114445    0.007648
   9 C :   -0.114823    0.007725
  10 S :   -0.046931   -0.000464
  11 S :   -0.046783   -0.000506
  12 S :   -0.046975   -0.000492
  13 S :   -0.046939   -0.000529
  14 C :   -0.336281    0.000037
  15 C :   -0.335391    0.000046
  16 C :   -0.335093    0.000032
  17 C :   -0.335497    0.000059
  18 C :   -0.090188    0.000173
  19 H :    0.148099   -0.000078
  20 H :    0.103292   -0.000023
  21 H :    0.047330    0.000029
  22 H :    0.078707    0.000000
  23 H :    0.103291   -0.000024
  24 H :    0.148647   -0.000077
  25 C :   -0.090198    0.000187
  26 H :    0.102956   -0.000020
  27 H :    0.148557   -0.000082
  28 H :    0.078545   -0.000005
  29 H :    0.047250    0.000026
  30 H :    0.148545   -0.000080
  31 H :    0.103099   -0.000019
Sum of atomic charges         :   -2.0000000

LOEWDIN ATOMIC CHARGES AND SPIN POPULATIONS
-------------------------------------------
   0 V :   -0.196742    1.168876
   1 S :    0.067682   -0.016622
   2 S :    0.067729   -0.016466
   3 S :    0.067735   -0.016567
   4 S :    0.067273   -0.016461
   5 O :   -0.324810   -0.132313
   6 C :   -0.549407    0.008806
   7 C :   -0.548711    0.008654
   8 C :   -0.548520    0.008673
   9 C :   -0.549106    0.008792
  10 S :    0.331080   -0.001298
  11 S :    0.330798   -0.001322
  12 S :    0.330954   -0.001313
  13 S :    0.330769   -0.001333
  14 C :   -0.292391    0.000041
  15 C :   -0.292532    0.000050
  16 C :   -0.292532    0.000040
  17 C :   -0.292555    0.000054
  18 C :   -0.184445   -0.000029
  19 H :    0.066874   -0.000041
  20 H :    0.047680   -0.000023
  21 H :    0.047965   -0.000000
  22 H :    0.053784    0.000010
  23 H :    0.047686   -0.000023
  24 H :    0.067080   -0.000041
  25 C :   -0.184418   -0.000032
  26 H :    0.047660   -0.000020
  27 H :    0.067018   -0.000041
  28 H :    0.053781    0.000009
  29 H :    0.047957    0.000001
  30 H :    0.067016   -0.000041
  31 H :    0.047651   -0.000020

  Mayer bond orders larger than 0.100000
B(  0-V ,  1-S ) :   0.7759 B(  0-V ,  2-S ) :   0.7787 B(  0-V ,  3-S ) :   0.7789
B(  0-V ,  4-S ) :   0.7752 B(  0-V ,  5-O ) :   2.1527 B(  1-S ,  8-C ) :   1.1310
B(  2-S ,  6-C ) :   1.1288 B(  3-S ,  9-C ) :   1.1289 B(  4-S ,  7-C ) :   1.1311
B(  6-C ,  7-C ) :   1.5357 B(  6-C , 10-S ) :   0.9478 B(  7-C , 11-S ) :   0.9474
B(  8-C ,  9-C ) :   1.5360 B(  8-C , 13-S ) :   0.9474 B(  9-C , 12-S ) :   0.9478
B( 10-S , 16-C ) :   1.0034 B( 11-S , 14-C ) :   1.0031 B( 12-S , 15-C ) :   1.0034
B( 13-S , 17-C ) :   1.0036 B( 14-C , 18-C ) :   0.8804 B( 14-C , 23-H ) :   0.9701
B( 14-C , 24-H ) :   0.9749 B( 15-C , 25-C ) :   0.8803 B( 15-C , 30-H ) :   0.9747
B( 15-C , 31-H ) :   0.9700 B( 16-C , 18-C ) :   0.8804 B( 16-C , 19-H ) :   0.9748
B( 16-C , 20-H ) :   0.9699 B( 17-C , 25-C ) :   0.8803 B( 17-C , 26-H ) :   0.9700
B( 17-C , 27-H ) :   0.9747 B( 18-C , 21-H ) :   0.9537 B( 18-C , 22-H ) :   0.9743
B( 25-C , 28-H ) :   0.9745 B( 25-C , 29-H ) :   0.9536

FINAL SINGLE POINT ENERGY     -4592.719250532130

DIPOLE MOMENT
-------------
                                X             Y             Z
Electronic contribution:      4.89046     -26.55006       3.07276
Nuclear contribution   :     -5.45215      29.60421      -3.42686
                        -----------------------------------------
Total Dipole Moment    :     -0.56169       3.05415      -0.35410
                        -----------------------------------------
Magnitude (a.u.)       :      3.12550
Magnitude (Debye)      :      7.94438

Rotational constants in cm-1:     0.012693     0.002422     0.002325
Rotational constants in MHz :   380.536670    72.607910    69.697288

                             ****ORCA TERMINATED NORMALLY****
TOTAL RUN TIME: 0 days 0 hours 43 minutes 7 seconds 403 msec
