                         Program Version 5.0.4 -  RELEASE  -
|  1> ! nofrozencore ReducedPop printbasis
|  2> ! B3LYP TZVP
|  3>
|  4> %basis
|  5> newgto V "CP(PPP)" end
|  6> end
|  7>
|  8> %pal
|  9> nprocs 4
| 10> end
| 11>
| 12> % sym SymThresh 1e-2 end
| 13> * xyz -2 2
| 14> V -0.39777425379435677 -0.9072106097630964 0.5127080156196249
| 15> S 1.9119269110660804 -0.5812494014131776 1.263887979545316
| 16> S -0.9357739608850443 1.0395937628236998 1.897759079631442
| 17> S 0.6778508757553577 -1.626744009441953 -1.5668940640082896
| 18> S -2.183718853962383 -0.02952785763170791 -0.9181457095705995
| 19> O -0.9616590725706359 -2.207106422132138 1.2486153276644723
| 20> C -2.5028432843610555 1.5833899784713126 1.2850791629842817
| 21> C -3.0222898989385283 1.1383188309864758 0.11047072897253277
| 22> C 2.8783590249806346 -1.4692102014430348 0.07262198792548386
| 23> C 2.354941799593134 -1.9112493909606587 -1.101607709132231
| 24> S -3.3425631787343946 2.795093341228269 2.325339233200914
| 25> S -4.603884043407562 1.7175528538359157 -0.5358813234377005
| 26> S 3.345397735400492 -2.775433186012021 -2.3305085753621304
| 27> S 4.605916635023488 -1.729631470221698 0.5433941140329448
| 28> C -4.266440101433179 3.489724203527014 -0.93257522029625
| 29> C 4.55371254588543 -1.49807062665969 -2.9030127767882936
| 30> C -3.281264078834608 4.332225918795337 1.3036337186271219
| 31> C 5.496115131531661 -0.6433350603835878 -0.6516392077407288
| 32> C -4.363433869112884 4.472438749976168 0.23276569308040185
| 33> H -2.285960572831613 4.392656057528628 0.8578533726630796
| 34> H -3.372855104096604 5.146564174220747 2.0292354681344915
| 35> H -4.29998570154143 5.4925274720890505 -0.17962986424403263
| 36> H -5.351832636721199 4.376531654118354 0.6951036568044306
| 37> H -5.008630014929939 3.757168164946534 -1.691377983457341
| 38> H -3.2810458019357345 3.523736762240143 -1.40203069264451
| 39> C 5.765511800521559 -1.2742281690414499 -2.0495957050650073
| 40> H 6.356549627198944 -0.47101658271144764 0.03972769942763256
| 41> H 5.091359685589034 0.3624119793594093 -1.015392727852885
| 42> H 6.177372621637514 -2.3234214374264326 -2.1873669699729286
| 43> H 6.444898217379316 -0.602042116238848 -2.5983940044363116
| 44> H 3.71212899624079 -0.7461943871933894 -3.0263956732024355
| 45> H 5.053735004961506 -1.7018843739996068 -3.8839307191870325
| 46> *
| 47>
| 48> % eprnmr
| 49> gtensor true
| 50> Nuclei = all H {aiso,adip,aorb,fgrad,rho}
| 51> Nuclei = all V {aiso,adip,aorb,fgrad,rho}
| 52> end
| 53>
| 54>                          ****END OF INPUT****

CARTESIAN COORDINATES (ANGSTROEM)
---------------------------------
  V     -0.398264   -0.908132    0.513274
  S      1.911438   -0.582171    1.264454
  S     -0.936263    1.038672    1.898325
  S      0.677362   -1.627666   -1.566329
  S     -2.184208   -0.030449   -0.917580
  O     -0.962148   -2.208028    1.249181
  C     -2.503333    1.582468    1.285645
  C     -3.022779    1.137397    0.111036
  C      2.877870   -1.470132    0.073188
  C      2.354452   -1.912171   -1.101042
  S     -3.343053    2.794172    2.325905
  S     -4.604373    1.716631   -0.535316
  S      3.344908   -2.776355   -2.329943
  S      4.605427   -1.730553    0.543960
  C     -4.266929    3.488803   -0.932010
  C      4.553223   -1.498992   -2.902447
  C     -3.281753    4.331304    1.304199
  C      5.495626   -0.644257   -0.651074
  C     -4.363923    4.471517    0.233331
  H     -2.286450    4.391735    0.858419
  H     -3.373344    5.145643    2.029801
  H     -4.300475    5.491606   -0.179064
  H     -5.352322    4.375610    0.695669
  H     -5.009119    3.756247   -1.690812
  H     -3.281535    3.522815   -1.401465
  C      5.765022   -1.275150   -2.049030
  H      6.356060   -0.471938    0.040293
  H      5.090870    0.361490   -1.014827
  H      6.176883   -2.324343   -2.186801
  H      6.444409   -0.602964   -2.597828
  H      3.711640   -0.747116   -3.025830
  H      5.053246   -1.702806   -3.883365

 Total Charge           Charge          ....   -2
 Multiplicity           Mult            ....    2
 Number of Electrons    NEL             ....  233
 Basis Dimension        Dim             ....  517

ORBITAL ENERGIES
----------------
                 SPIN UP ORBITALS
  NO   OCC          E(Eh)            E(eV)
   0   1.0000    -196.640752     -5350.8669
   1   1.0000     -88.682795     -2413.1815
   2   1.0000     -88.676877     -2413.0205
   3   1.0000     -88.676739     -2413.0167
   4   1.0000     -88.674498     -2412.9558
   5   1.0000     -88.613173     -2411.2870
   6   1.0000     -88.612776     -2411.2762
   7   1.0000     -88.612425     -2411.2667
   8   1.0000     -88.612391     -2411.2658
   9   1.0000     -22.016552      -599.1008
  10   1.0000     -18.857819      -513.1473
  11   1.0000     -18.523377      -504.0467
  12   1.0000     -18.517602      -503.8896
  13   1.0000     -18.517564      -503.8885
  14   1.0000     -10.027344      -272.8579
  15   1.0000     -10.018388      -272.6142
  16   1.0000     -10.015723      -272.5417
  17   1.0000     -10.015517      -272.5361
  18   1.0000     -10.010861      -272.4094
  19   1.0000     -10.004879      -272.2466
  20   1.0000      -9.993211      -271.9291
  21   1.0000      -9.992182      -271.9011
  22   1.0000      -9.991865      -271.8925
  23   1.0000      -9.991463      -271.8815
  24   1.0000      -7.736142      -210.5111
  25   1.0000      -7.730516      -210.3580
  26   1.0000      -7.730376      -210.3542
  27   1.0000      -7.728398      -210.3004
  28   1.0000      -7.667671      -208.6479
  29   1.0000      -7.667108      -208.6326
  30   1.0000      -7.666846      -208.6255
  31   1.0000      -7.666816      -208.6247
  32   1.0000      -5.701524      -155.1463
  33   1.0000      -5.697551      -155.0382
  34   1.0000      -5.695768      -154.9897
  35   1.0000      -5.695623      -154.9858
  36   1.0000      -5.693543      -154.9292
  37   1.0000      -5.691868      -154.8836
  38   1.0000      -5.691726      -154.8797
  39   1.0000      -5.690750      -154.8532
  40   1.0000      -5.689706      -154.8248
  41   1.0000      -5.685263      -154.7039
  42   1.0000      -5.685133      -154.7003
  43   1.0000      -5.683198      -154.6477
  44   1.0000      -5.632504      -153.2682
  45   1.0000      -5.631980      -153.2540
  46   1.0000      -5.631677      -153.2457
  47   1.0000      -5.631666      -153.2454
  48   1.0000      -5.626084      -153.0935
  49   1.0000      -5.625671      -153.0823
  50   1.0000      -5.625540      -153.0787
  51   1.0000      -5.625303      -153.0723
  52   1.0000      -5.625257      -153.0710
  53   1.0000      -5.625095      -153.0666
  54   1.0000      -5.624825      -153.0593
  55   1.0000      -5.624808      -153.0588
  56   1.0000      -2.410241       -65.5860
  57   1.0000      -1.451598       -39.5000
  58   1.0000      -1.440024       -39.1850
  59   1.0000      -1.438942       -39.1556
  60   1.0000      -0.645530       -17.5658
  61   1.0000      -0.644030       -17.5249
  62   1.0000      -0.618845       -16.8396
  63   1.0000      -0.595658       -16.2087
  64   1.0000      -0.593949       -16.1622
  65   1.0000      -0.576666       -15.6919
  66   1.0000      -0.576047       -15.6750
  67   1.0000      -0.494972       -13.4689
  68   1.0000      -0.490757       -13.3542
  69   1.0000      -0.487485       -13.2651
  70   1.0000      -0.484914       -13.1952
  71   1.0000      -0.423910       -11.5352
  72   1.0000      -0.421011       -11.4563
  73   1.0000      -0.411884       -11.2079
  74   1.0000      -0.405207       -11.0262
  75   1.0000      -0.375300       -10.2124
  76   1.0000      -0.367478        -9.9996
  77   1.0000      -0.299074        -8.1382
  78   1.0000      -0.293076        -7.9750
  79   1.0000      -0.279111        -7.5950
  80   1.0000      -0.277906        -7.5622
  81   1.0000      -0.259460        -7.0603
  82   1.0000      -0.251895        -6.8544
  83   1.0000      -0.242014        -6.5855
  84   1.0000      -0.239864        -6.5270
  85   1.0000      -0.195487        -5.3195
  86   1.0000      -0.192570        -5.2401
  87   1.0000      -0.192310        -5.2330
  88   1.0000      -0.185153        -5.0383
  89   1.0000      -0.184474        -5.0198
  90   1.0000      -0.179552        -4.8859
  91   1.0000      -0.174363        -4.7447
  92   1.0000      -0.158491        -4.3127
  93   1.0000      -0.151102        -4.1117
  94   1.0000      -0.146686        -3.9915
  95   1.0000      -0.143027        -3.8920
  96   1.0000      -0.124942        -3.3998
  97   1.0000      -0.099745        -2.7142
  98   1.0000      -0.096371        -2.6224
  99   1.0000      -0.089397        -2.4326
 100   1.0000      -0.084827        -2.3083
 101   1.0000      -0.080859        -2.2003
 102   1.0000      -0.079285        -2.1575
 103   1.0000      -0.069876        -1.9014
 104   1.0000      -0.050669        -1.3788
 105   1.0000      -0.039457        -1.0737
 106   1.0000      -0.038008        -1.0342
 107   1.0000      -0.036151        -0.9837
 108   1.0000      -0.032290        -0.8786
 109   1.0000      -0.013764        -0.3745
 110   1.0000      -0.004860        -0.1323
 111   1.0000      -0.003767        -0.1025
 112   1.0000       0.005542         0.1508
 113   1.0000       0.010024         0.2728
 114   1.0000       0.015636         0.4255
 115   1.0000       0.033029         0.8988
 116   1.0000       0.059161         1.6098
 117   0.0000       0.185088         5.0365
 118   0.0000       0.193041         5.2529
 119   0.0000       0.193734         5.2718
 120   0.0000       0.196315         5.3420
 121   0.0000       0.210751         5.7348

                 SPIN DOWN ORBITALS
  NO   OCC          E(Eh)            E(eV)
   0   1.0000    -196.640893     -5350.8707
   1   1.0000     -88.682808     -2413.1819
   2   1.0000     -88.676891     -2413.0209
   3   1.0000     -88.676752     -2413.0171
   4   1.0000     -88.674511     -2412.9561
   5   1.0000     -88.613330     -2411.2913
   6   1.0000     -88.612936     -2411.2806
   7   1.0000     -88.612585     -2411.2710
   8   1.0000     -88.612551     -2411.2701
   9   1.0000     -22.001884      -598.7017
  10   1.0000     -18.861393      -513.2446
  11   1.0000     -18.518249      -503.9072
  12   1.0000     -18.502109      -503.4680
  13   1.0000     -18.501432      -503.4496
  14   1.0000     -10.027339      -272.8578
  15   1.0000     -10.018384      -272.6141
  16   1.0000     -10.015720      -272.5416
  17   1.0000     -10.015514      -272.5360
  18   1.0000     -10.010861      -272.4094
  19   1.0000     -10.004879      -272.2466
  20   1.0000      -9.992953      -271.9221
  21   1.0000      -9.991928      -271.8942
  22   1.0000      -9.991616      -271.8857
  23   1.0000      -9.991211      -271.8747
  24   1.0000      -7.736155      -210.5115
  25   1.0000      -7.730529      -210.3584
  26   1.0000      -7.730390      -210.3546
  27   1.0000      -7.728413      -210.3008
  28   1.0000      -7.667818      -208.6519
  29   1.0000      -7.667257      -208.6367
  30   1.0000      -7.666994      -208.6295
  31   1.0000      -7.666965      -208.6287
  32   1.0000      -5.701540      -155.1468
  33   1.0000      -5.697571      -155.0388
  34   1.0000      -5.695784      -154.9902
  35   1.0000      -5.695640      -154.9862
  36   1.0000      -5.693559      -154.9296
  37   1.0000      -5.691888      -154.8841
  38   1.0000      -5.691746      -154.8803
  39   1.0000      -5.690766      -154.8536
  40   1.0000      -5.689727      -154.8253
  41   1.0000      -5.685279      -154.7043
  42   1.0000      -5.685150      -154.7008
  43   1.0000      -5.683216      -154.6482
  44   1.0000      -5.632673      -153.2728
  45   1.0000      -5.632153      -153.2587
  46   1.0000      -5.631849      -153.2504
  47   1.0000      -5.631838      -153.2501
  48   1.0000      -5.626472      -153.1041
  49   1.0000      -5.625931      -153.0894
  50   1.0000      -5.625803      -153.0859
  51   1.0000      -5.625694      -153.0829
  52   1.0000      -5.625649      -153.0817
  53   1.0000      -5.625232      -153.0703
  54   1.0000      -5.624961      -153.0630
  55   1.0000      -5.624943      -153.0625
  56   1.0000      -2.366060       -64.3838
  57   1.0000      -1.432779       -38.9879
  58   1.0000      -1.378615       -37.5140
  59   1.0000      -1.377965       -37.4963
  60   1.0000      -0.645481       -17.5644
  61   1.0000      -0.643980       -17.5236
  62   1.0000      -0.626499       -17.0479
  63   1.0000      -0.595468       -16.2035
  64   1.0000      -0.593750       -16.1567
  65   1.0000      -0.576657       -15.6916
  66   1.0000      -0.576042       -15.6749
  67   1.0000      -0.494986       -13.4693
  68   1.0000      -0.490789       -13.3550
  69   1.0000      -0.487495       -13.2654
  70   1.0000      -0.484945       -13.1960
  71   1.0000      -0.424144       -11.5415
  72   1.0000      -0.421314       -11.4645
  73   1.0000      -0.411902       -11.2084
  74   1.0000      -0.405305       -11.0289
  75   1.0000      -0.375283       -10.2120
  76   1.0000      -0.367473        -9.9995
  77   1.0000      -0.299054        -8.1377
  78   1.0000      -0.293059        -7.9745
  79   1.0000      -0.279091        -7.5944
  80   1.0000      -0.277888        -7.5617
  81   1.0000      -0.259288        -7.0556
  82   1.0000      -0.251805        -6.8520
  83   1.0000      -0.241936        -6.5834
  84   1.0000      -0.239795        -6.5252
  85   1.0000      -0.195042        -5.3074
  86   1.0000      -0.192519        -5.2387
  87   1.0000      -0.192272        -5.2320
  88   1.0000      -0.184966        -5.0332
  89   1.0000      -0.183919        -5.0047
  90   1.0000      -0.178059        -4.8452
  91   1.0000      -0.174274        -4.7422
  92   1.0000      -0.158271        -4.3068
  93   1.0000      -0.150445        -4.0938
  94   1.0000      -0.146447        -3.9850
  95   1.0000      -0.142825        -3.8865
  96   1.0000      -0.124688        -3.3929
  97   1.0000      -0.098824        -2.6891
  98   1.0000      -0.095379        -2.5954
  99   1.0000      -0.089436        -2.4337
 100   1.0000      -0.084685        -2.3044
 101   1.0000      -0.082694        -2.2502
 102   1.0000      -0.079157        -2.1540
 103   1.0000      -0.070994        -1.9318
 104   1.0000      -0.046551        -1.2667
 105   1.0000      -0.039305        -1.0696
 106   1.0000      -0.037569        -1.0223
 107   1.0000      -0.035162        -0.9568
 108   1.0000      -0.032239        -0.8773
 109   1.0000      -0.012871        -0.3502
 110   1.0000      -0.006191        -0.1685
 111   1.0000      -0.002749        -0.0748
 112   1.0000       0.006383         0.1737
 113   1.0000       0.010918         0.2971
 114   1.0000       0.033285         0.9057
 115   1.0000       0.058371         1.5884
 116   0.0000       0.184166         5.0114
 117   0.0000       0.186474         5.0742
 118   0.0000       0.193325         5.2606
 119   0.0000       0.194299         5.2871
 120   0.0000       0.196518         5.3475

MULLIKEN ATOMIC CHARGES AND SPIN POPULATIONS
--------------------------------------------
   0 V :    0.447149    1.199187
   1 S :   -0.252216   -0.024276
   2 S :   -0.253440   -0.024211
   3 S :   -0.253174   -0.023813
   4 S :   -0.253907   -0.024113
   5 O :   -0.506063   -0.138746
   6 C :   -0.116365    0.008835
   7 C :   -0.116021    0.008895
   8 C :   -0.095774    0.009219
   9 C :   -0.138963    0.008579
  10 S :   -0.044762   -0.000165
  11 S :   -0.044491   -0.000200
  12 S :   -0.044984   -0.000222
  13 S :   -0.042213   -0.000184
  14 C :   -0.339591    0.000287
  15 C :   -0.351558    0.000215
  16 C :   -0.336480    0.000269
  17 C :   -0.278095    0.000329
  18 C :   -0.084323    0.000136
  19 H :    0.146202   -0.000101
  20 H :    0.101977    0.000021
  21 H :    0.044661    0.000039
  22 H :    0.078600    0.000017
  23 H :    0.101863    0.000022
  24 H :    0.147678   -0.000103
  25 C :   -0.081365    0.000116
  26 H :    0.095538    0.000046
  27 H :    0.116405   -0.000073
  28 H :    0.061761    0.000004
  29 H :    0.052908    0.000048
  30 H :    0.147772   -0.000077
  31 H :    0.091273    0.000025
Sum of atomic charges         :   -2.0000000

LOEWDIN ATOMIC CHARGES AND SPIN POPULATIONS
-------------------------------------------
   0 V :   -0.242796    1.153168
   1 S :    0.087907   -0.016497
   2 S :    0.088255   -0.016386
   3 S :    0.090935   -0.016035
   4 S :    0.087992   -0.016358
   5 O :   -0.350600   -0.124195
   6 C :   -0.553015    0.009983
   7 C :   -0.552816    0.009954
   8 C :   -0.544509    0.010252
   9 C :   -0.562398    0.009701
  10 S :    0.337073   -0.001027
  11 S :    0.336564   -0.001043
  12 S :    0.331022   -0.001078
  13 S :    0.349555   -0.001022
  14 C :   -0.293767    0.000165
  15 C :   -0.316885    0.000160
  16 C :   -0.293505    0.000155
  17 C :   -0.301481    0.000198
  18 C :   -0.184811   -0.000036
  19 H :    0.065944   -0.000027
  20 H :    0.047207    0.000004
  21 H :    0.046821    0.000017
  22 H :    0.053419    0.000012
  23 H :    0.047460    0.000005
  24 H :    0.065963   -0.000027
  25 C :   -0.195271   -0.000037
  26 H :    0.047463    0.000020
  27 H :    0.076876   -0.000029
  28 H :    0.059397    0.000006
  29 H :    0.045821    0.000018
  30 H :    0.071157   -0.000023
  31 H :    0.055027    0.000003

  Mayer bond orders larger than 0.100000
B(  0-V ,  1-S ) :   0.7889 B(  0-V ,  2-S ) :   0.7917 B(  0-V ,  3-S ) :   0.7877
B(  0-V ,  4-S ) :   0.7886 B(  0-V ,  5-O ) :   2.1083 B(  1-S ,  8-C ) :   1.1407
B(  2-S ,  6-C ) :   1.1366 B(  3-S ,  9-C ) :   1.1327 B(  4-S ,  7-C ) :   1.1378
B(  6-C ,  7-C ) :   1.5177 B(  6-C , 10-S ) :   0.9536 B(  7-C , 11-S ) :   0.9543
B(  8-C ,  9-C ) :   1.5144 B(  8-C , 13-S ) :   0.9430 B(  9-C , 12-S ) :   0.9656
B( 10-S , 16-C ) :   1.0049 B( 11-S , 14-C ) :   1.0049 B( 12-S , 15-C ) :   1.0023
B( 13-S , 17-C ) :   1.0045 B( 14-C , 18-C ) :   0.8772 B( 14-C , 23-H ) :   0.9699
B( 14-C , 24-H ) :   0.9757 B( 15-C , 25-C ) :   0.8546 B( 15-C , 30-H ) :   0.9758
B( 15-C , 31-H ) :   0.9615 B( 16-C , 18-C ) :   0.8789 B( 16-C , 19-H ) :   0.9748
B( 16-C , 20-H ) :   0.9703 B( 17-C , 25-C ) :   0.9023 B( 17-C , 26-H ) :   0.9744
B( 17-C , 27-H ) :   0.9474 B( 18-C , 21-H ) :   0.9527 B( 18-C , 22-H ) :   0.9738
B( 25-C , 28-H ) :   0.9587 B( 25-C , 29-H ) :   0.9631

FINAL SINGLE POINT ENERGY     -4592.683910686143

DIPOLE MOMENT
-------------
                                X             Y             Z
Electronic contribution:     -9.47311     -21.58380      12.67344
Nuclear contribution   :     10.50171      24.08637     -13.96639
                        -----------------------------------------
Total Dipole Moment    :      1.02860       2.50257      -1.29294
                        -----------------------------------------
Magnitude (a.u.)       :      2.99876
Magnitude (Debye)      :      7.62225

Rotational constants in cm-1:     0.012768     0.002548     0.002431
Rotational constants in MHz :   382.776599    76.396396    72.881335

                             ****ORCA TERMINATED NORMALLY****
TOTAL RUN TIME: 0 days 0 hours 43 minutes 0 seconds 567 msec
