                         Program Version 5.0.4 -  RELEASE  -
|  1> ! nofrozencore ReducedPop printbasis
|  2> ! B3LYP TZVP
|  3>
|  4> %basis
|  5> newgto V "CP(PPP)" end
|  6> end
|  7>
|  8> %pal
|  9> nprocs 4
| 10> end
| 11>
| 12> % sym SymThresh 1e-2 end
| 13> * xyz -2 2
| 14> V 0.5374966605285274 -0.9735950623570463 -0.08565013499499192
| 15> S -1.794451354625526 -1.4600042585607764 0.4895421134172353
| 16> S -0.3170897302719433 -0.385481023007487 -2.304336242075615
| 17> S 0.66615061155896 -0.24358839548115752 2.2488318957368825
| 18> S 2.15935951345 0.804381668215548 -0.5490190513540947
| 19> O 1.3023262309814545 -2.3699662698797246 -0.20581413435190382
| 20> C 0.9776451637543225 0.5814885429709767 -3.0176650624314276
| 21> C 2.0124161499942814 1.0801059182982742 -2.290936194235936
| 22> C -1.8110885841418218 -1.4360771438822526 2.257148660644922
| 23> C -0.7851469710229482 -0.9288816995608851 2.9907399776468986
| 24> S 0.8056115861861486 0.8817193358784191 -4.792487058611401
| 25> S 3.313733779666655 2.0948573860234596 -3.0102830540465964
| 26> S -0.8136978512711251 -0.868032512808591 4.793886578968777
| 27> S -3.3097513746725213 -2.1029710273542332 3.00885423081811
| 28> C 2.453245008259711 3.601351730789008 -3.4711630857988824
| 29> C -2.1517380324572573 0.360005912273992 5.144072811659429
| 30> C 0.45206156106158896 2.7456304529441042 -4.869382046636464
| 31> C -4.099728655848704 -0.6109795611223899 3.748417130233596
| 32> C 1.7005394164287682 3.623528199901338 -4.803628825732987
| 33> H -0.3318712031322128 2.6976009538735224 -4.0596926263502064
| 34> H -0.0850052257336522 2.6742764897798708 -5.841453007257751
| 35> H 1.0322241856579577 4.489625441533772 -5.2567707371652075
| 36> H 2.5728985166814415 3.4266923240231657 -5.475408781038011
| 37> H 3.0917970261433396 4.511009613765006 -3.5924837549256776
| 38> H 1.6123780355355761 4.006184984552165 -2.8300976682194565
| 39> C -3.5809269324912307 -0.17981148239444764 5.1195517583162555
| 40> H -5.162937394747514 -0.8577419142220796 3.8339974343280923
| 41> H -4.007686447737946 0.20933149349715874 3.0328811505428064
| 42> H -3.6703385252359473 -1.0278905675048045 5.807210746948871
| 43> H -4.225837172845971 0.6224835615282278 5.514079163077576
| 44> H -2.0114783208091733 1.1772087046642454 4.433194473060643
| 45> H -1.9119804477040978 0.7370725100477271 6.143202332575347
| 46> *
| 47>
| 48> % eprnmr
| 49> gtensor true
| 50> Nuclei = all H {aiso,adip,aorb,fgrad,rho}
| 51> Nuclei = all V {aiso,adip,aorb,fgrad,rho}
| 52> end
| 53>
| 54>                          ****END OF INPUT****

CARTESIAN COORDINATES (ANGSTROEM)
---------------------------------
  V      0.538098   -0.974605   -0.085813
  S     -1.793850   -1.461014    0.489380
  S     -0.316488   -0.386491   -2.304499
  S      0.666752   -0.244598    2.248670
  S      2.159961    0.803372   -0.549181
  O      1.302928   -2.370976   -0.205977
  C      0.978247    0.580479   -3.017827
  C      2.013018    1.079096   -2.291099
  C     -1.810487   -1.437087    2.256986
  C     -0.784545   -0.929892    2.990578
  S      0.806213    0.880709   -4.792649
  S      3.314336    2.093847   -3.010445
  S     -0.813096   -0.869042    4.793724
  S     -3.309150   -2.103981    3.008692
  C      2.453847    3.600342   -3.471325
  C     -2.151136    0.358996    5.143910
  C      0.452663    2.744621   -4.869544
  C     -4.099127   -0.611989    3.748255
  C      1.701141    3.622518   -4.803791
  H     -0.331269    2.696591   -4.059855
  H     -0.084403    2.673267   -5.841615
  H      1.032826    4.488616   -5.256933
  H      2.573500    3.425682   -5.475571
  H      3.092399    4.510000   -3.592646
  H      1.612980    4.005175   -2.830260
  C     -3.580325   -0.180821    5.119389
  H     -5.162336   -0.858752    3.833835
  H     -4.007085    0.208322    3.032719
  H     -3.669737   -1.028900    5.807048
  H     -4.225235    0.621474    5.513917
  H     -2.010877    1.176199    4.433032
  H     -1.911379    0.736063    6.143040

 Total Charge           Charge          ....   -2
 Multiplicity           Mult            ....    2
 Number of Electrons    NEL             ....  233
 Basis Dimension        Dim             ....  517

ORBITAL ENERGIES
----------------
                 SPIN UP ORBITALS
  NO   OCC          E(Eh)            E(eV)
   0   1.0000    -196.640822     -5350.8688
   1   1.0000     -88.688431     -2413.3349
   2   1.0000     -88.677428     -2413.0355
   3   1.0000     -88.676198     -2413.0020
   4   1.0000     -88.668758     -2412.7996
   5   1.0000     -88.613705     -2411.3015
   6   1.0000     -88.612523     -2411.2693
   7   1.0000     -88.612424     -2411.2666
   8   1.0000     -88.612359     -2411.2649
   9   1.0000     -22.016626      -599.1028
  10   1.0000     -18.857880      -513.1490
  11   1.0000     -18.523449      -504.0487
  12   1.0000     -18.517676      -503.8916
  13   1.0000     -18.517638      -503.8906
  14   1.0000     -10.024650      -272.7846
  15   1.0000     -10.022314      -272.7210
  16   1.0000     -10.017624      -272.5934
  17   1.0000     -10.015663      -272.5400
  18   1.0000     -10.015589      -272.5380
  19   1.0000     -10.004927      -272.2479
  20   1.0000      -9.993266      -271.9306
  21   1.0000      -9.992244      -271.9028
  22   1.0000      -9.992206      -271.9017
  23   1.0000      -9.991527      -271.8833
  24   1.0000      -7.741990      -210.6703
  25   1.0000      -7.731050      -210.3726
  26   1.0000      -7.729857      -210.3401
  27   1.0000      -7.722657      -210.1442
  28   1.0000      -7.668110      -208.6599
  29   1.0000      -7.666935      -208.6279
  30   1.0000      -7.666897      -208.6269
  31   1.0000      -7.666822      -208.6248
  32   1.0000      -5.707506      -155.3091
  33   1.0000      -5.703180      -155.1914
  34   1.0000      -5.696626      -155.0131
  35   1.0000      -5.696309      -155.0045
  36   1.0000      -5.695088      -154.9712
  37   1.0000      -5.692401      -154.8981
  38   1.0000      -5.691216      -154.8659
  39   1.0000      -5.687624      -154.7681
  40   1.0000      -5.685801      -154.7185
  41   1.0000      -5.684616      -154.6863
  42   1.0000      -5.684078      -154.6716
  43   1.0000      -5.677540      -154.4937
  44   1.0000      -5.632927      -153.2797
  45   1.0000      -5.631791      -153.2488
  46   1.0000      -5.631765      -153.2481
  47   1.0000      -5.631656      -153.2452
  48   1.0000      -5.626545      -153.1061
  49   1.0000      -5.626133      -153.0949
  50   1.0000      -5.625392      -153.0747
  51   1.0000      -5.625301      -153.0722
  52   1.0000      -5.625261      -153.0711
  53   1.0000      -5.624923      -153.0619
  54   1.0000      -5.624835      -153.0595
  55   1.0000      -5.624793      -153.0584
  56   1.0000      -2.410318       -65.5881
  57   1.0000      -1.451678       -39.5022
  58   1.0000      -1.440103       -39.1872
  59   1.0000      -1.439024       -39.1578
  60   1.0000      -0.646557       -17.5937
  61   1.0000      -0.644115       -17.5272
  62   1.0000      -0.618890       -16.8408
  63   1.0000      -0.595156       -16.1950
  64   1.0000      -0.593925       -16.1615
  65   1.0000      -0.578202       -15.7337
  66   1.0000      -0.576198       -15.6792
  67   1.0000      -0.493532       -13.4297
  68   1.0000      -0.490773       -13.3546
  69   1.0000      -0.487762       -13.2727
  70   1.0000      -0.486722       -13.2444
  71   1.0000      -0.425052       -11.5663
  72   1.0000      -0.421387       -11.4665
  73   1.0000      -0.412028       -11.2119
  74   1.0000      -0.405763       -11.0414
  75   1.0000      -0.375461       -10.2168
  76   1.0000      -0.370664       -10.0863
  77   1.0000      -0.296274        -8.0620
  78   1.0000      -0.293065        -7.9747
  79   1.0000      -0.277935        -7.5630
  80   1.0000      -0.275801        -7.5049
  81   1.0000      -0.263415        -7.1679
  82   1.0000      -0.257048        -6.9946
  83   1.0000      -0.244972        -6.6660
  84   1.0000      -0.241139        -6.5617
  85   1.0000      -0.195992        -5.3332
  86   1.0000      -0.194627        -5.2961
  87   1.0000      -0.191733        -5.2173
  88   1.0000      -0.184894        -5.0312
  89   1.0000      -0.182987        -4.9793
  90   1.0000      -0.179345        -4.8802
  91   1.0000      -0.169082        -4.6010
  92   1.0000      -0.152461        -4.1487
  93   1.0000      -0.150036        -4.0827
  94   1.0000      -0.145902        -3.9702
  95   1.0000      -0.142793        -3.8856
  96   1.0000      -0.127216        -3.4617
  97   1.0000      -0.098145        -2.6707
  98   1.0000      -0.096621        -2.6292
  99   1.0000      -0.088437        -2.4065
 100   1.0000      -0.083334        -2.2676
 101   1.0000      -0.080982        -2.2036
 102   1.0000      -0.079408        -2.1608
 103   1.0000      -0.069193        -1.8829
 104   1.0000      -0.050869        -1.3842
 105   1.0000      -0.041377        -1.1259
 106   1.0000      -0.038265        -1.0413
 107   1.0000      -0.036272        -0.9870
 108   1.0000      -0.031547        -0.8584
 109   1.0000      -0.013830        -0.3763
 110   1.0000      -0.005001        -0.1361
 111   1.0000      -0.003711        -0.1010
 112   1.0000       0.005551         0.1511
 113   1.0000       0.010007         0.2723
 114   1.0000       0.015572         0.4237
 115   1.0000       0.032931         0.8961
 116   1.0000       0.059071         1.6074
 117   0.0000       0.184595         5.0231
 118   0.0000       0.193077         5.2539
 119   0.0000       0.194488         5.2923
 120   0.0000       0.196285         5.3412
 121   0.0000       0.210702         5.7335

                 SPIN DOWN ORBITALS
  NO   OCC          E(Eh)            E(eV)
   0   1.0000    -196.640963     -5350.8726
   1   1.0000     -88.688444     -2413.3353
   2   1.0000     -88.677441     -2413.0359
   3   1.0000     -88.676212     -2413.0024
   4   1.0000     -88.668772     -2412.7999
   5   1.0000     -88.613865     -2411.3058
   6   1.0000     -88.612683     -2411.2737
   7   1.0000     -88.612582     -2411.2709
   8   1.0000     -88.612519     -2411.2692
   9   1.0000     -22.001955      -598.7036
  10   1.0000     -18.861468      -513.2466
  11   1.0000     -18.518316      -503.9090
  12   1.0000     -18.502183      -503.4700
  13   1.0000     -18.501504      -503.4515
  14   1.0000     -10.024647      -272.7845
  15   1.0000     -10.022311      -272.7209
  16   1.0000     -10.017624      -272.5934
  17   1.0000     -10.015659      -272.5399
  18   1.0000     -10.015585      -272.5379
  19   1.0000     -10.004927      -272.2479
  20   1.0000      -9.993012      -271.9237
  21   1.0000      -9.991989      -271.8958
  22   1.0000      -9.991952      -271.8948
  23   1.0000      -9.991274      -271.8764
  24   1.0000      -7.742004      -210.6706
  25   1.0000      -7.731064      -210.3729
  26   1.0000      -7.729871      -210.3405
  27   1.0000      -7.722671      -210.1446
  28   1.0000      -7.668259      -208.6639
  29   1.0000      -7.667083      -208.6319
  30   1.0000      -7.667044      -208.6309
  31   1.0000      -7.666971      -208.6289
  32   1.0000      -5.707521      -155.3096
  33   1.0000      -5.703201      -155.1920
  34   1.0000      -5.696641      -155.0135
  35   1.0000      -5.696326      -155.0049
  36   1.0000      -5.695105      -154.9717
  37   1.0000      -5.692421      -154.8987
  38   1.0000      -5.691236      -154.8664
  39   1.0000      -5.687642      -154.7686
  40   1.0000      -5.685818      -154.7190
  41   1.0000      -5.684633      -154.6867
  42   1.0000      -5.684097      -154.6722
  43   1.0000      -5.677558      -154.4942
  44   1.0000      -5.633098      -153.2844
  45   1.0000      -5.631961      -153.2535
  46   1.0000      -5.631937      -153.2528
  47   1.0000      -5.631828      -153.2498
  48   1.0000      -5.626929      -153.1165
  49   1.0000      -5.626275      -153.0987
  50   1.0000      -5.625785      -153.0854
  51   1.0000      -5.625688      -153.0828
  52   1.0000      -5.625655      -153.0818
  53   1.0000      -5.625058      -153.0656
  54   1.0000      -5.624967      -153.0631
  55   1.0000      -5.624928      -153.0621
  56   1.0000      -2.366132       -64.3857
  57   1.0000      -1.432839       -38.9895
  58   1.0000      -1.378687       -37.5160
  59   1.0000      -1.378045       -37.4985
  60   1.0000      -0.646509       -17.5924
  61   1.0000      -0.644065       -17.5259
  62   1.0000      -0.626576       -17.0500
  63   1.0000      -0.594965       -16.1898
  64   1.0000      -0.593723       -16.1560
  65   1.0000      -0.578195       -15.7335
  66   1.0000      -0.576193       -15.6790
  67   1.0000      -0.493548       -13.4301
  68   1.0000      -0.490803       -13.3554
  69   1.0000      -0.487772       -13.2729
  70   1.0000      -0.486747       -13.2451
  71   1.0000      -0.425296       -11.5729
  72   1.0000      -0.421690       -11.4748
  73   1.0000      -0.412042       -11.2122
  74   1.0000      -0.405856       -11.0439
  75   1.0000      -0.375436       -10.2161
  76   1.0000      -0.370670       -10.0865
  77   1.0000      -0.296256        -8.0615
  78   1.0000      -0.293048        -7.9742
  79   1.0000      -0.277915        -7.5624
  80   1.0000      -0.275788        -7.5046
  81   1.0000      -0.263193        -7.1618
  82   1.0000      -0.256995        -6.9932
  83   1.0000      -0.244951        -6.6654
  84   1.0000      -0.241049        -6.5593
  85   1.0000      -0.195772        -5.3272
  86   1.0000      -0.194411        -5.2902
  87   1.0000      -0.191662        -5.2154
  88   1.0000      -0.184813        -5.0290
  89   1.0000      -0.181036        -4.9262
  90   1.0000      -0.179190        -4.8760
  91   1.0000      -0.168839        -4.5943
  92   1.0000      -0.152032        -4.1370
  93   1.0000      -0.149554        -4.0696
  94   1.0000      -0.145682        -3.9642
  95   1.0000      -0.142608        -3.8806
  96   1.0000      -0.126987        -3.4555
  97   1.0000      -0.097167        -2.6441
  98   1.0000      -0.095657        -2.6030
  99   1.0000      -0.088662        -2.4126
 100   1.0000      -0.083220        -2.2645
 101   1.0000      -0.082545        -2.2462
 102   1.0000      -0.079503        -2.1634
 103   1.0000      -0.070249        -1.9116
 104   1.0000      -0.046915        -1.2766
 105   1.0000      -0.041009        -1.1159
 106   1.0000      -0.037922        -1.0319
 107   1.0000      -0.035394        -0.9631
 108   1.0000      -0.031330        -0.8525
 109   1.0000      -0.012913        -0.3514
 110   1.0000      -0.006344        -0.1726
 111   1.0000      -0.002757        -0.0750
 112   1.0000       0.006421         0.1747
 113   1.0000       0.010917         0.2971
 114   1.0000       0.033188         0.9031
 115   1.0000       0.058280         1.5859
 116   0.0000       0.184408         5.0180
 117   0.0000       0.185601         5.0505
 118   0.0000       0.193511         5.2657
 119   0.0000       0.194902         5.3035
 120   0.0000       0.196497         5.3470

MULLIKEN ATOMIC CHARGES AND SPIN POPULATIONS
--------------------------------------------
   0 V :    0.447540    1.199367
   1 S :   -0.254177   -0.024339
   2 S :   -0.251273   -0.024029
   3 S :   -0.253202   -0.024270
   4 S :   -0.254566   -0.023626
   5 O :   -0.506010   -0.139019
   6 C :   -0.147796    0.008892
   7 C :   -0.088690    0.008684
   8 C :   -0.113416    0.008893
   9 C :   -0.118730    0.008931
  10 S :   -0.087137   -0.000210
  11 S :   -0.005139   -0.000102
  12 S :   -0.046892   -0.000202
  13 S :   -0.042361   -0.000221
  14 C :   -0.303777    0.000334
  15 C :   -0.338006    0.000298
  16 C :   -0.316077    0.000221
  17 C :   -0.336695    0.000317
  18 C :   -0.107626    0.000105
  19 H :    0.167275   -0.000058
  20 H :    0.095746    0.000022
  21 H :    0.032342    0.000066
  22 H :    0.075187   -0.000018
  23 H :    0.094135    0.000020
  24 H :    0.123884   -0.000084
  25 C :   -0.085074    0.000137
  26 H :    0.101655    0.000029
  27 H :    0.145428   -0.000108
  28 H :    0.078568    0.000012
  29 H :    0.044598    0.000036
  30 H :    0.148461   -0.000106
  31 H :    0.101826    0.000027
Sum of atomic charges         :   -2.0000000

LOEWDIN ATOMIC CHARGES AND SPIN POPULATIONS
-------------------------------------------
   0 V :   -0.242682    1.153350
   1 S :    0.087745   -0.016497
   2 S :    0.092042   -0.016299
   3 S :    0.088648   -0.016421
   4 S :    0.086381   -0.016011
   5 O :   -0.350558   -0.124443
   6 C :   -0.552746    0.010003
   7 C :   -0.553934    0.009953
   8 C :   -0.552697    0.009932
   9 C :   -0.552796    0.010015
  10 S :    0.294233   -0.001094
  11 S :    0.382560   -0.000966
  12 S :    0.334282   -0.001050
  13 S :    0.339381   -0.001052
  14 C :   -0.327155    0.000148
  15 C :   -0.292668    0.000171
  16 C :   -0.297794    0.000188
  17 C :   -0.294877    0.000175
  18 C :   -0.207102   -0.000050
  19 H :    0.085013   -0.000014
  20 H :    0.049273    0.000015
  21 H :    0.065170    0.000031
  22 H :    0.057400    0.000005
  23 H :    0.053563   -0.000003
  24 H :    0.067230   -0.000039
  25 C :   -0.184925   -0.000039
  26 H :    0.047442    0.000009
  27 H :    0.065470   -0.000028
  28 H :    0.053454    0.000011
  29 H :    0.046900    0.000018
  30 H :    0.066526   -0.000026
  31 H :    0.047222    0.000009

  Mayer bond orders larger than 0.100000
B(  0-V ,  1-S ) :   0.7891 B(  0-V ,  2-S ) :   0.7887 B(  0-V ,  3-S ) :   0.7919
B(  0-V ,  4-S ) :   0.7865 B(  0-V ,  5-O ) :   2.1085 B(  1-S ,  8-C ) :   1.1373
B(  2-S ,  6-C ) :   1.1373 B(  3-S ,  9-C ) :   1.1371 B(  4-S ,  7-C ) :   1.1341
B(  6-C ,  7-C ) :   1.5046 B(  6-C , 10-S ) :   0.9892 B(  7-C , 11-S ) :   0.9195
B(  8-C ,  9-C ) :   1.5181 B(  8-C , 13-S ) :   0.9511 B(  9-C , 12-S ) :   0.9569
B( 10-S , 16-C ) :   0.9508 B( 11-S , 14-C ) :   1.0098 B( 12-S , 15-C ) :   1.0033
B( 13-S , 17-C ) :   1.0072 B( 14-C , 18-C ) :   0.8593 B( 14-C , 23-H ) :   0.9581
B( 14-C , 24-H ) :   0.9696 B( 15-C , 25-C ) :   0.8794 B( 15-C , 30-H ) :   0.9748
B( 15-C , 31-H ) :   0.9707 B( 16-C , 18-C ) :   0.8981 B( 16-C , 19-H ) :   0.9617
B( 16-C , 20-H ) :   0.9766 B( 17-C , 25-C ) :   0.8770 B( 17-C , 26-H ) :   0.9694
B( 17-C , 27-H ) :   0.9753 B( 18-C , 21-H ) :   0.9531 B( 18-C , 22-H ) :   0.9631
B( 25-C , 28-H ) :   0.9740 B( 25-C , 29-H ) :   0.9526

FINAL SINGLE POINT ENERGY     -4592.665441224286

DIPOLE MOMENT
-------------
                                X             Y             Z
Electronic contribution:     13.28748     -23.21425      -1.69073
Nuclear contribution   :    -14.77065      25.76153       1.99827
                        -----------------------------------------
Total Dipole Moment    :     -1.48317       2.54728       0.30755
                        -----------------------------------------
Magnitude (a.u.)       :      2.96361
Magnitude (Debye)      :      7.53290

Rotational constants in cm-1:     0.012767     0.002548     0.002431
Rotational constants in MHz :   382.752016    76.397150    72.880529

                             ****ORCA TERMINATED NORMALLY****
TOTAL RUN TIME: 0 days 0 hours 43 minutes 32 seconds 140 msec
