                         Program Version 5.0.4 -  RELEASE  -
|  1> ! nofrozencore ReducedPop printbasis
|  2> ! B3LYP TZVP
|  3>
|  4> %basis
|  5> newgto V "CP(PPP)" end
|  6> end
|  7>
|  8> %pal
|  9> nprocs 4
| 10> end
| 11>
| 12> % sym SymThresh 1e-2 end
| 13> * xyz -2 2
| 14> V -0.7558493834629897 0.819811825874681 0.026339255278764243
| 15> S 1.426768790546445 1.83542174487105 -0.43283100689084897
| 16> S -0.644861356651672 -0.03112177591988398 -2.2672126598080644
| 17> S 0.15536559366936567 0.5608600245166038 2.2851710201466324
| 18> S -1.9388759885403823 -1.284193517527397 0.4509183097404301
| 19> O -1.8334211482402676 1.9975246528542756 0.06413300188471069
| 20> C -1.8308267426883 -1.3462933595809792 -2.2963157068540276
| 21> C -2.3682514959714562 -1.868681777279626 -1.164660860540964
| 22> C 2.0872460577459306 2.1681922439885666 1.1717802549304615
| 23> C 1.557164466133964 1.6368560946634407 2.305510494317447
| 24> S -2.242869807615119 -1.9551753929145974 -3.9400840513038258
| 25> S -3.546461851613526 -3.230389780930381 -1.1868834745245773
| 26> S 2.251347044221089 1.9443925613248139 3.943594369869536
| 27> S 3.541446348917107 3.2388135260597717 1.184488181703797
| 28> C -2.5604683598184725 -4.60567344884165 -1.7573769866299502
| 29> C 3.9032821793651533 1.078750271803266 3.86503049736788
| 30> C -1.5208307397416767 -3.5879835405869307 -3.9576579189571284
| 31> C 4.904670208717451 2.0841870527665476 1.724469296938863
| 32> C -2.332960414402688 -4.790992306712223 -3.316745281669719
| 33> H -0.5116217932953785 -3.8540497471736175 -3.47516865251245
| 34> H -1.3094883884389183 -4.1884363712224015 -4.93507201171857
| 35> H -1.920427820862416 -5.780352750062183 -3.578374073233848
| 36> H -3.340568027522351 -4.71541156007084 -3.758404450808578
| 37> H -2.8715854038822908 -5.721822961992601 -1.622271985053806
| 38> H -1.4661826995262173 -4.785843388203176 -1.4540694019832638
| 39> C 5.01359557282256 1.8694352218198105 3.2151641964017252
| 40> H 5.752574264314967 2.6187871669456295 1.2731962752070112
| 41> H 4.6806091594264005 1.1930433051105738 1.1284723872344091
| 42> H 5.157723092816699 2.824540042373395 3.7311187595830635
| 43> H 5.9356980637505 1.2849639676192646 3.3723312973380493
| 44> H 3.6308723396379827 0.14117706390535115 3.3686699286390276
| 45> H 4.0371852754212 0.8947193839047631 4.940476267392987
| 46> *
| 47>
| 48> % eprnmr
| 49> gtensor true
| 50> Nuclei = all H {aiso,adip,aorb,fgrad,rho}
| 51> Nuclei = all V {aiso,adip,aorb,fgrad,rho}
| 52> end
| 53>
| 54>                          ****END OF INPUT****

CARTESIAN COORDINATES (ANGSTROEM)
---------------------------------
  V     -0.756700    0.820639    0.026317
  S      1.425918    1.836249   -0.432853
  S     -0.645712   -0.030294   -2.267235
  S      0.154515    0.561688    2.285149
  S     -1.939727   -1.283366    0.450896
  O     -1.834272    1.998352    0.064111
  C     -1.831677   -1.345466   -2.296338
  C     -2.369102   -1.867854   -1.164683
  C      2.086396    2.169020    1.171758
  C      1.556314    1.637684    2.305488
  S     -2.243720   -1.954348   -3.940106
  S     -3.547312   -3.229562   -1.186906
  S      2.250496    1.945220    3.943572
  S      3.540596    3.239641    1.184466
  C     -2.561319   -4.604846   -1.757399
  C      3.902432    1.079578    3.865008
  C     -1.521681   -3.587156   -3.957680
  C      4.903820    2.085015    1.724447
  C     -2.333811   -4.790165   -3.316767
  H     -0.512472   -3.853222   -3.475191
  H     -1.310339   -4.187609   -4.935094
  H     -1.921278   -5.779525   -3.578396
  H     -3.341419   -4.714584   -3.758426
  H     -2.872436   -5.720995   -1.622294
  H     -1.467033   -4.785016   -1.454091
  C      5.012745    1.870263    3.215142
  H      5.751724    2.619615    1.273174
  H      4.679759    1.193871    1.128450
  H      5.156873    2.825368    3.731097
  H      5.934848    1.285792    3.372309
  H      3.630022    0.142005    3.368648
  H      4.036335    0.895547    4.940454

 Total Charge           Charge          ....   -2
 Multiplicity           Mult            ....    2
 Number of Electrons    NEL             ....  233
 Basis Dimension        Dim             ....  517

ORBITAL ENERGIES
----------------
                 SPIN UP ORBITALS
  NO   OCC          E(Eh)            E(eV)
   0   1.0000    -196.642422     -5350.9123
   1   1.0000     -88.688268     -2413.3305
   2   1.0000     -88.688255     -2413.3301
   3   1.0000     -88.675323     -2412.9782
   4   1.0000     -88.675320     -2412.9781
   5   1.0000     -88.615795     -2411.3584
   6   1.0000     -88.615756     -2411.3573
   7   1.0000     -88.613322     -2411.2911
   8   1.0000     -88.613266     -2411.2895
   9   1.0000     -22.018217      -599.1461
  10   1.0000     -18.859393      -513.1902
  11   1.0000     -18.525041      -504.0920
  12   1.0000     -18.519267      -503.9349
  13   1.0000     -18.519232      -503.9339
  14   1.0000     -10.021736      -272.7053
  15   1.0000     -10.021704      -272.7044
  16   1.0000     -10.019202      -272.6364
  17   1.0000     -10.019196      -272.6362
  18   1.0000     -10.009808      -272.3807
  19   1.0000     -10.000088      -272.1162
  20   1.0000      -9.998198      -272.0648
  21   1.0000      -9.997468      -272.0449
  22   1.0000      -9.992046      -271.8974
  23   1.0000      -9.991333      -271.8780
  24   1.0000      -7.741829      -210.6659
  25   1.0000      -7.741796      -210.6650
  26   1.0000      -7.729023      -210.3174
  27   1.0000      -7.729013      -210.3171
  28   1.0000      -7.670106      -208.7142
  29   1.0000      -7.670093      -208.7139
  30   1.0000      -7.667766      -208.6505
  31   1.0000      -7.667698      -208.6487
  32   1.0000      -5.707322      -155.3041
  33   1.0000      -5.707287      -155.3032
  34   1.0000      -5.703098      -155.1892
  35   1.0000      -5.703075      -155.1886
  36   1.0000      -5.696400      -155.0069
  37   1.0000      -5.696370      -155.0061
  38   1.0000      -5.694197      -154.9470
  39   1.0000      -5.694192      -154.9468
  40   1.0000      -5.690380      -154.8431
  41   1.0000      -5.690375      -154.8430
  42   1.0000      -5.683807      -154.6643
  43   1.0000      -5.683806      -154.6642
  44   1.0000      -5.635039      -153.3372
  45   1.0000      -5.635035      -153.3371
  46   1.0000      -5.632577      -153.2702
  47   1.0000      -5.632516      -153.2685
  48   1.0000      -5.628480      -153.1587
  49   1.0000      -5.628478      -153.1587
  50   1.0000      -5.628076      -153.1477
  51   1.0000      -5.628062      -153.1474
  52   1.0000      -5.626233      -153.0976
  53   1.0000      -5.626171      -153.0959
  54   1.0000      -5.625755      -153.0846
  55   1.0000      -5.625689      -153.0828
  56   1.0000      -2.411902       -65.6312
  57   1.0000      -1.453241       -39.5447
  58   1.0000      -1.441684       -39.2302
  59   1.0000      -1.440606       -39.2009
  60   1.0000      -0.647509       -17.6196
  61   1.0000      -0.641738       -17.4626
  62   1.0000      -0.620403       -16.8820
  63   1.0000      -0.595710       -16.2101
  64   1.0000      -0.591789       -16.1034
  65   1.0000      -0.579372       -15.7655
  66   1.0000      -0.577191       -15.7062
  67   1.0000      -0.496908       -13.5215
  68   1.0000      -0.492520       -13.4021
  69   1.0000      -0.488069       -13.2810
  70   1.0000      -0.484956       -13.1963
  71   1.0000      -0.427725       -11.6390
  72   1.0000      -0.420213       -11.4346
  73   1.0000      -0.414402       -11.2764
  74   1.0000      -0.404720       -11.0130
  75   1.0000      -0.375015       -10.2047
  76   1.0000      -0.369445       -10.0531
  77   1.0000      -0.300151        -8.1675
  78   1.0000      -0.286153        -7.7866
  79   1.0000      -0.278204        -7.5703
  80   1.0000      -0.271210        -7.3800
  81   1.0000      -0.259470        -7.0605
  82   1.0000      -0.258238        -7.0270
  83   1.0000      -0.247052        -6.7226
  84   1.0000      -0.211024        -5.7423
  85   1.0000      -0.203301        -5.5321
  86   1.0000      -0.202439        -5.5086
  87   1.0000      -0.199550        -5.4300
  88   1.0000      -0.188007        -5.1159
  89   1.0000      -0.181532        -4.9397
  90   1.0000      -0.171859        -4.6765
  91   1.0000      -0.166907        -4.5418
  92   1.0000      -0.153312        -4.1718
  93   1.0000      -0.147621        -4.0170
  94   1.0000      -0.141775        -3.8579
  95   1.0000      -0.140137        -3.8133
  96   1.0000      -0.131138        -3.5684
  97   1.0000      -0.101447        -2.7605
  98   1.0000      -0.096418        -2.6237
  99   1.0000      -0.094668        -2.5760
 100   1.0000      -0.085033        -2.3139
 101   1.0000      -0.082447        -2.2435
 102   1.0000      -0.082360        -2.2411
 103   1.0000      -0.071858        -1.9553
 104   1.0000      -0.053395        -1.4530
 105   1.0000      -0.042097        -1.1455
 106   1.0000      -0.039696        -1.0802
 107   1.0000      -0.037430        -1.0185
 108   1.0000      -0.033339        -0.9072
 109   1.0000      -0.015585        -0.4241
 110   1.0000      -0.007585        -0.2064
 111   1.0000      -0.004844        -0.1318
 112   1.0000       0.004086         0.1112
 113   1.0000       0.008529         0.2321
 114   1.0000       0.013938         0.3793
 115   1.0000       0.030597         0.8326
 116   1.0000       0.057188         1.5562
 117   0.0000       0.184012         5.0072
 118   0.0000       0.189493         5.1564
 119   0.0000       0.192425         5.2361
 120   0.0000       0.195592         5.3223
 121   0.0000       0.207981         5.6595

                 SPIN DOWN ORBITALS
  NO   OCC          E(Eh)            E(eV)
   0   1.0000    -196.642563     -5350.9162
   1   1.0000     -88.688280     -2413.3308
   2   1.0000     -88.688267     -2413.3304
   3   1.0000     -88.675337     -2412.9786
   4   1.0000     -88.675333     -2412.9785
   5   1.0000     -88.615952     -2411.3626
   6   1.0000     -88.615913     -2411.3616
   7   1.0000     -88.613484     -2411.2955
   8   1.0000     -88.613427     -2411.2939
   9   1.0000     -22.003551      -598.7470
  10   1.0000     -18.862983      -513.2879
  11   1.0000     -18.519908      -503.9523
  12   1.0000     -18.503784      -503.5136
  13   1.0000     -18.503098      -503.4949
  14   1.0000     -10.021732      -272.7052
  15   1.0000     -10.021700      -272.7043
  16   1.0000     -10.019198      -272.6363
  17   1.0000     -10.019193      -272.6361
  18   1.0000     -10.009807      -272.3807
  19   1.0000     -10.000088      -272.1162
  20   1.0000      -9.997941      -272.0578
  21   1.0000      -9.997212      -272.0380
  22   1.0000      -9.991791      -271.8905
  23   1.0000      -9.991081      -271.8711
  24   1.0000      -7.741842      -210.6662
  25   1.0000      -7.741810      -210.6654
  26   1.0000      -7.729037      -210.3178
  27   1.0000      -7.729027      -210.3175
  28   1.0000      -7.670252      -208.7182
  29   1.0000      -7.670240      -208.7178
  30   1.0000      -7.667916      -208.6546
  31   1.0000      -7.667848      -208.6528
  32   1.0000      -5.707337      -155.3045
  33   1.0000      -5.707303      -155.3036
  34   1.0000      -5.703119      -155.1897
  35   1.0000      -5.703096      -155.1891
  36   1.0000      -5.696416      -155.0073
  37   1.0000      -5.696386      -155.0065
  38   1.0000      -5.694215      -154.9475
  39   1.0000      -5.694209      -154.9473
  40   1.0000      -5.690400      -154.8437
  41   1.0000      -5.690395      -154.8435
  42   1.0000      -5.683825      -154.6647
  43   1.0000      -5.683823      -154.6647
  44   1.0000      -5.635209      -153.3418
  45   1.0000      -5.635205      -153.3417
  46   1.0000      -5.632751      -153.2749
  47   1.0000      -5.632689      -153.2732
  48   1.0000      -5.628863      -153.1691
  49   1.0000      -5.628862      -153.1691
  50   1.0000      -5.628209      -153.1514
  51   1.0000      -5.628197      -153.1510
  52   1.0000      -5.626630      -153.1084
  53   1.0000      -5.626569      -153.1067
  54   1.0000      -5.625891      -153.0883
  55   1.0000      -5.625825      -153.0865
  56   1.0000      -2.367719       -64.4289
  57   1.0000      -1.434403       -39.0321
  58   1.0000      -1.380292       -37.5597
  59   1.0000      -1.379638       -37.5419
  60   1.0000      -0.647468       -17.6185
  61   1.0000      -0.641651       -17.4602
  62   1.0000      -0.628099       -17.0914
  63   1.0000      -0.595505       -16.2045
  64   1.0000      -0.591628       -16.0990
  65   1.0000      -0.579363       -15.7653
  66   1.0000      -0.577186       -15.7060
  67   1.0000      -0.496929       -13.5221
  68   1.0000      -0.492551       -13.4030
  69   1.0000      -0.488084       -13.2814
  70   1.0000      -0.484985       -13.1971
  71   1.0000      -0.427956       -11.6453
  72   1.0000      -0.420506       -11.4425
  73   1.0000      -0.414432       -11.2773
  74   1.0000      -0.404797       -11.0151
  75   1.0000      -0.375002       -10.2043
  76   1.0000      -0.369438       -10.0529
  77   1.0000      -0.300135        -8.1671
  78   1.0000      -0.286116        -7.7856
  79   1.0000      -0.278185        -7.5698
  80   1.0000      -0.271030        -7.3751
  81   1.0000      -0.259442        -7.0598
  82   1.0000      -0.258212        -7.0263
  83   1.0000      -0.246921        -6.7191
  84   1.0000      -0.211026        -5.7423
  85   1.0000      -0.203143        -5.5278
  86   1.0000      -0.202349        -5.5062
  87   1.0000      -0.199464        -5.4277
  88   1.0000      -0.186576        -5.0770
  89   1.0000      -0.180890        -4.9223
  90   1.0000      -0.171384        -4.6636
  91   1.0000      -0.166711        -4.5364
  92   1.0000      -0.152652        -4.1539
  93   1.0000      -0.147388        -4.0106
  94   1.0000      -0.141553        -3.8519
  95   1.0000      -0.139947        -3.8081
  96   1.0000      -0.131045        -3.5659
  97   1.0000      -0.100178        -2.7260
  98   1.0000      -0.095961        -2.6112
  99   1.0000      -0.094382        -2.5683
 100   1.0000      -0.085306        -2.3213
 101   1.0000      -0.084269        -2.2931
 102   1.0000      -0.082014        -2.2317
 103   1.0000      -0.073048        -1.9877
 104   1.0000      -0.049630        -1.3505
 105   1.0000      -0.041584        -1.1316
 106   1.0000      -0.038797        -1.0557
 107   1.0000      -0.036772        -1.0006
 108   1.0000      -0.033299        -0.9061
 109   1.0000      -0.014683        -0.3995
 110   1.0000      -0.008579        -0.2335
 111   1.0000      -0.004249        -0.1156
 112   1.0000       0.004938         0.1344
 113   1.0000       0.009433         0.2567
 114   1.0000       0.030837         0.8391
 115   1.0000       0.056396         1.5346
 116   0.0000       0.182682         4.9710
 117   0.0000       0.185043         5.0353
 118   0.0000       0.189556         5.1581
 119   0.0000       0.193019         5.2523
 120   0.0000       0.195813         5.3283

MULLIKEN ATOMIC CHARGES AND SPIN POPULATIONS
--------------------------------------------
   0 V :    0.446602    1.199189
   1 S :   -0.254537   -0.024712
   2 S :   -0.245293   -0.023469
   3 S :   -0.254827   -0.024644
   4 S :   -0.245597   -0.023395
   5 O :   -0.505198   -0.139147
   6 C :   -0.114087    0.008849
   7 C :   -0.112171    0.008854
   8 C :   -0.117979    0.008984
   9 C :   -0.118101    0.008914
  10 S :    0.004191   -0.000099
  11 S :    0.004344   -0.000130
  12 S :   -0.058656   -0.000218
  13 S :   -0.058735   -0.000249
  14 C :   -0.282124    0.000344
  15 C :   -0.353388    0.000269
  16 C :   -0.280318    0.000331
  17 C :   -0.352573    0.000291
  18 C :   -0.198308    0.000063
  19 H :    0.115205   -0.000062
  20 H :    0.066143   -0.000010
  21 H :    0.056343    0.000104
  22 H :    0.070005   -0.000032
  23 H :    0.066231   -0.000008
  24 H :    0.116024   -0.000065
  25 C :   -0.044482    0.000155
  26 H :    0.103663    0.000037
  27 H :    0.157215   -0.000115
  28 H :    0.083620    0.000024
  29 H :    0.045466    0.000026
  30 H :    0.157659   -0.000112
  31 H :    0.103662    0.000035
Sum of atomic charges         :   -2.0000000

LOEWDIN ATOMIC CHARGES AND SPIN POPULATIONS
-------------------------------------------
   0 V :   -0.242015    1.153230
   1 S :    0.088037   -0.016759
   2 S :    0.093992   -0.015891
   3 S :    0.087830   -0.016692
   4 S :    0.093697   -0.015864
   5 O :   -0.350195   -0.124559
   6 C :   -0.543277    0.010114
   7 C :   -0.542733    0.010067
   8 C :   -0.555834    0.009953
   9 C :   -0.556144    0.009973
  10 S :    0.384170   -0.000958
  11 S :    0.383960   -0.000974
  12 S :    0.323948   -0.001071
  13 S :    0.323951   -0.001086
  14 C :   -0.350174    0.000160
  15 C :   -0.285888    0.000171
  16 C :   -0.350148    0.000153
  17 C :   -0.285913    0.000182
  18 C :   -0.209886   -0.000067
  19 H :    0.063656   -0.000028
  20 H :    0.057070   -0.000017
  21 H :    0.044254    0.000019
  22 H :    0.041972    0.000012
  23 H :    0.057118   -0.000016
  24 H :    0.063855   -0.000030
  25 C :   -0.182241   -0.000031
  26 H :    0.049171    0.000015
  27 H :    0.070837   -0.000024
  28 H :    0.057739    0.000011
  29 H :    0.049078    0.000019
  30 H :    0.070932   -0.000024
  31 H :    0.049183    0.000014

  Mayer bond orders larger than 0.100000
B(  0-V ,  1-S ) :   0.7922 B(  0-V ,  2-S ) :   0.7866 B(  0-V ,  3-S ) :   0.7943
B(  0-V ,  4-S ) :   0.7840 B(  0-V ,  5-O ) :   2.1089 B(  1-S ,  8-C ) :   1.1355
B(  2-S ,  6-C ) :   1.1400 B(  3-S ,  9-C ) :   1.1344 B(  4-S ,  7-C ) :   1.1412
B(  6-C ,  7-C ) :   1.5114 B(  6-C , 10-S ) :   0.9389 B(  7-C , 11-S ) :   0.9388
B(  8-C ,  9-C ) :   1.5064 B(  8-C , 13-S ) :   0.9631 B(  9-C , 12-S ) :   0.9635
B( 10-S , 16-C ) :   1.0091 B( 11-S , 14-C ) :   1.0090 B( 12-S , 15-C ) :   0.9998
B( 13-S , 17-C ) :   1.0001 B( 14-C , 18-C ) :   0.8471 B( 14-C , 23-H ) :   0.9538
B( 14-C , 24-H ) :   0.9634 B( 15-C , 25-C ) :   0.8832 B( 15-C , 30-H ) :   0.9748
B( 15-C , 31-H ) :   0.9736 B( 16-C , 18-C ) :   0.8473 B( 16-C , 19-H ) :   0.9633
B( 16-C , 20-H ) :   0.9537 B( 17-C , 25-C ) :   0.8832 B( 17-C , 26-H ) :   0.9737
B( 17-C , 27-H ) :   0.9748 B( 18-C , 21-H ) :   0.9580 B( 18-C , 22-H ) :   0.9765
B( 25-C , 28-H ) :   0.9704 B( 25-C , 29-H ) :   0.9518

FINAL SINGLE POINT ENERGY     -4592.657526640764

DIPOLE MOMENT
-------------
                                X             Y             Z
Electronic contribution:    -18.05713      20.74197       1.17836
Nuclear contribution   :     20.16691     -22.63354      -1.06876
                        -----------------------------------------
Total Dipole Moment    :      2.10978      -1.89157       0.10960
                        -----------------------------------------
Magnitude (a.u.)       :      2.83570
Magnitude (Debye)      :      7.20778

Rotational constants in cm-1:     0.012761     0.002548     0.002431
Rotational constants in MHz :   382.575624    76.380950    72.887558

                             ****ORCA TERMINATED NORMALLY****
TOTAL RUN TIME: 0 days 0 hours 43 minutes 38 seconds 667 msec
