                         Program Version 5.0.4 -  RELEASE  -
|  1> ! nofrozencore ReducedPop printbasis
|  2> ! B3LYP TZVP
|  3>
|  4> %basis
|  5> newgto V "CP(PPP)" end
|  6> end
|  7>
|  8> %pal
|  9> nprocs 4
| 10> end
| 11>
| 12> % sym SymThresh 1e-2 end
| 13> * xyz -2 2
| 14> V -0.03588543373317278 0.3483832997016543 1.0588917545720948
| 15> S -2.0747223993175963 1.2451051969431877 -0.0913993061729873
| 16> S -1.1146408588737666 -1.7861485834199786 0.9375123845459093
| 17> S 1.0948027927899369 2.0108846905332736 -0.24199973452104093
| 18> S 2.0543940647536054 -1.0116122923111255 0.7961567590639356
| 19> O -0.08645716426973575 0.853667434753457 2.5726046685361297
| 20> C 0.19597772050612722 -2.9635929736388227 1.2296164314203117
| 21> C 1.5157788966665136 -2.652719819496758 1.0963206841834805
| 22> C -1.5216330710198855 2.7575691228590102 -0.7827286355150065
| 23> C -0.20599129259663482 3.113057539216295 -0.7768732870970368
| 24> S -0.2979715733159955 -4.651676573517171 1.5777753616811707
| 25> S 2.89347199036603 -3.820122786305002 1.2859646156681586
| 26> S 0.2956335011298687 4.689243696118872 -1.4694029665711559
| 27> S -2.8877711528968915 3.7818768519794044 -1.4015636385736856
| 28> C 2.8782116038936385 -4.860918764506784 -0.2262158368016217
| 29> C -0.2920064884595264 4.468986633898261 -3.2311816118890975
| 30> C 0.388837734028733 -5.513793713068496 0.06828707043592454
| 31> C -2.7730710231093134 3.723495482369237 -3.2318504137772748
| 32> C 1.8577515949277355 -5.97055374858348 -0.05020710235808197
| 33> H 0.14856040618401742 -4.84803955320855 -0.7642412075600724
| 34> H -0.2412766265155727 -6.4049039413447835 -0.033721916409474126
| 35> H 1.894089100220596 -6.651380410463126 -0.9225953069395704
| 36> H 2.1350081575686826 -6.561358714025017 0.8308678170347881
| 37> H 3.892129743894789 -5.268471964803758 -0.312927794750338
| 38> H 2.682833399072163 -4.236547734707758 -1.1018598002624804
| 39> C -1.7417896299859414 4.7395588793475305 -3.6858348938296754
| 40> H -3.773070290180885 3.986491336558434 -3.5965577151747308
| 41> H -2.545353541254402 2.705191598106258 -3.558026667385024
| 42> H -2.0587101806325023 5.732129986896809 -3.3440921796494307
| 43> H -1.7105908494286415 4.771240762257624 -4.792484591409271
| 44> H -0.01881311041168771 3.441821153139908 -3.4858152504411803
| 45> H 0.3610551934470083 5.133138425164688 -3.809590569988819
| 46> *
| 47>
| 48> % eprnmr
| 49> gtensor true
| 50> Nuclei = all H {aiso,adip,aorb,fgrad,rho}
| 51> Nuclei = all V {aiso,adip,aorb,fgrad,rho}
| 52> end
| 53>
| 54>                          ****END OF INPUT****

CARTESIAN COORDINATES (ANGSTROEM)
---------------------------------
  V     -0.035905    0.348678    1.060041
  S     -2.074742    1.245400   -0.090250
  S     -1.114660   -1.785853    0.938662
  S      1.094783    2.011180   -0.240850
  S      2.054374   -1.011317    0.797306
  O     -0.086477    0.853963    2.573754
  C      0.195958   -2.963298    1.230766
  C      1.515759   -2.652425    1.097470
  C     -1.521653    2.757864   -0.781579
  C     -0.206011    3.113353   -0.775724
  S     -0.297991   -4.651381    1.578925
  S      2.893452   -3.819828    1.287114
  S      0.295614    4.689539   -1.468254
  S     -2.887791    3.782172   -1.400414
  C      2.878192   -4.860624   -0.225067
  C     -0.292026    4.469282   -3.230032
  C      0.388818   -5.513499    0.069436
  C     -2.773091    3.723791   -3.230701
  C      1.857732   -5.970259   -0.049058
  H      0.148541   -4.847744   -0.763092
  H     -0.241296   -6.404609   -0.032573
  H      1.894069   -6.651085   -0.921446
  H      2.134989   -6.561064    0.832017
  H      3.892110   -5.268177   -0.311778
  H      2.682814   -4.236253   -1.100710
  C     -1.741809    4.739854   -3.684686
  H     -3.773090    3.986786   -3.595408
  H     -2.545373    2.705487   -3.556877
  H     -2.058730    5.732425   -3.342943
  H     -1.710610    4.771536   -4.791335
  H     -0.018833    3.442116   -3.484666
  H      0.361036    5.133434   -3.808441

 Total Charge           Charge          ....   -2
 Multiplicity           Mult            ....    2
 Number of Electrons    NEL             ....  233
 Basis Dimension        Dim             ....  517

ORBITAL ENERGIES
----------------
                 SPIN UP ORBITALS
  NO   OCC          E(Eh)            E(eV)
   0   1.0000    -196.639825     -5350.8417
   1   1.0000     -88.678538     -2413.0657
   2   1.0000     -88.678444     -2413.0631
   3   1.0000     -88.674991     -2412.9692
   4   1.0000     -88.674790     -2412.9637
   5   1.0000     -88.614925     -2411.3347
   6   1.0000     -88.614797     -2411.3312
   7   1.0000     -88.609416     -2411.1848
   8   1.0000     -88.609302     -2411.1817
   9   1.0000     -22.015656      -599.0764
  10   1.0000     -18.857071      -513.1270
  11   1.0000     -18.522472      -504.0221
  12   1.0000     -18.516731      -503.8659
  13   1.0000     -18.516643      -503.8635
  14   1.0000     -10.016863      -272.5727
  15   1.0000     -10.016835      -272.5719
  16   1.0000     -10.015050      -272.5234
  17   1.0000     -10.014997      -272.5219
  18   1.0000     -10.005961      -272.2761
  19   1.0000     -10.005934      -272.2753
  20   1.0000      -9.992275      -271.9036
  21   1.0000      -9.992239      -271.9026
  22   1.0000      -9.991512      -271.8829
  23   1.0000      -9.991502      -271.8826
  24   1.0000      -7.731789      -210.3927
  25   1.0000      -7.731712      -210.3906
  26   1.0000      -7.728909      -210.3143
  27   1.0000      -7.728738      -210.3097
  28   1.0000      -7.669170      -208.6887
  29   1.0000      -7.669105      -208.6870
  30   1.0000      -7.664014      -208.5484
  31   1.0000      -7.663928      -208.5461
  32   1.0000      -5.697073      -155.0252
  33   1.0000      -5.696992      -155.0230
  34   1.0000      -5.694145      -154.9456
  35   1.0000      -5.693978      -154.9410
  36   1.0000      -5.693135      -154.9181
  37   1.0000      -5.693054      -154.9159
  38   1.0000      -5.690292      -154.8407
  39   1.0000      -5.690114      -154.8359
  40   1.0000      -5.686601      -154.7403
  41   1.0000      -5.686531      -154.7384
  42   1.0000      -5.683556      -154.6574
  43   1.0000      -5.683379      -154.6526
  44   1.0000      -5.634210      -153.3146
  45   1.0000      -5.634126      -153.3123
  46   1.0000      -5.628694      -153.1645
  47   1.0000      -5.628591      -153.1617
  48   1.0000      -5.627565      -153.1338
  49   1.0000      -5.627467      -153.1312
  50   1.0000      -5.627032      -153.1193
  51   1.0000      -5.626986      -153.1181
  52   1.0000      -5.622539      -152.9971
  53   1.0000      -5.622451      -152.9947
  54   1.0000      -5.622035      -152.9833
  55   1.0000      -5.621955      -152.9812
  56   1.0000      -2.409497       -65.5657
  57   1.0000      -1.450853       -39.4797
  58   1.0000      -1.439394       -39.1679
  59   1.0000      -1.438210       -39.1357
  60   1.0000      -0.643845       -17.5199
  61   1.0000      -0.643775       -17.5180
  62   1.0000      -0.618140       -16.8204
  63   1.0000      -0.594447       -16.1757
  64   1.0000      -0.594035       -16.1645
  65   1.0000      -0.573483       -15.6053
  66   1.0000      -0.573287       -15.5999
  67   1.0000      -0.490848       -13.3566
  68   1.0000      -0.489704       -13.3255
  69   1.0000      -0.486303       -13.2330
  70   1.0000      -0.485934       -13.2229
  71   1.0000      -0.423465       -11.5231
  72   1.0000      -0.420817       -11.4510
  73   1.0000      -0.411540       -11.1986
  74   1.0000      -0.406662       -11.0658
  75   1.0000      -0.376188       -10.2366
  76   1.0000      -0.372951       -10.1485
  77   1.0000      -0.292408        -7.9568
  78   1.0000      -0.292205        -7.9513
  79   1.0000      -0.279173        -7.5967
  80   1.0000      -0.278994        -7.5918
  81   1.0000      -0.258179        -7.0254
  82   1.0000      -0.253515        -6.8985
  83   1.0000      -0.241422        -6.5694
  84   1.0000      -0.238870        -6.5000
  85   1.0000      -0.197128        -5.3641
  86   1.0000      -0.196849        -5.3565
  87   1.0000      -0.191437        -5.2093
  88   1.0000      -0.187317        -5.0972
  89   1.0000      -0.183921        -5.0047
  90   1.0000      -0.183436        -4.9915
  91   1.0000      -0.177875        -4.8402
  92   1.0000      -0.153711        -4.1827
  93   1.0000      -0.145987        -3.9725
  94   1.0000      -0.143907        -3.9159
  95   1.0000      -0.141871        -3.8605
  96   1.0000      -0.141090        -3.8393
  97   1.0000      -0.097428        -2.6511
  98   1.0000      -0.097337        -2.6487
  99   1.0000      -0.089155        -2.4260
 100   1.0000      -0.085331        -2.3220
 101   1.0000      -0.079972        -2.1762
 102   1.0000      -0.079763        -2.1705
 103   1.0000      -0.069516        -1.8916
 104   1.0000      -0.050546        -1.3754
 105   1.0000      -0.037932        -1.0322
 106   1.0000      -0.037882        -1.0308
 107   1.0000      -0.035203        -0.9579
 108   1.0000      -0.031942        -0.8692
 109   1.0000      -0.013809        -0.3758
 110   1.0000      -0.003844        -0.1046
 111   1.0000      -0.003819        -0.1039
 112   1.0000       0.006079         0.1654
 113   1.0000       0.011482         0.3124
 114   1.0000       0.016717         0.4549
 115   1.0000       0.034803         0.9470
 116   1.0000       0.060271         1.6401
 117   0.0000       0.185711         5.0534
 118   0.0000       0.192308         5.2330
 119   0.0000       0.197020         5.3612
 120   0.0000       0.197779         5.3818
 121   0.0000       0.210851         5.7375

                 SPIN DOWN ORBITALS
  NO   OCC          E(Eh)            E(eV)
   0   1.0000    -196.639966     -5350.8455
   1   1.0000     -88.678548     -2413.0660
   2   1.0000     -88.678454     -2413.0634
   3   1.0000     -88.675006     -2412.9696
   4   1.0000     -88.674805     -2412.9641
   5   1.0000     -88.615079     -2411.3389
   6   1.0000     -88.614950     -2411.3354
   7   1.0000     -88.609583     -2411.1893
   8   1.0000     -88.609469     -2411.1862
   9   1.0000     -22.001004      -598.6777
  10   1.0000     -18.860651      -513.2244
  11   1.0000     -18.517348      -503.8827
  12   1.0000     -18.501213      -503.4436
  13   1.0000     -18.500572      -503.4262
  14   1.0000     -10.016861      -272.5726
  15   1.0000     -10.016833      -272.5719
  16   1.0000     -10.015044      -272.5232
  17   1.0000     -10.014991      -272.5218
  18   1.0000     -10.005961      -272.2760
  19   1.0000     -10.005934      -272.2753
  20   1.0000      -9.991987      -271.8958
  21   1.0000      -9.991962      -271.8951
  22   1.0000      -9.991269      -271.8763
  23   1.0000      -9.991267      -271.8762
  24   1.0000      -7.731800      -210.3930
  25   1.0000      -7.731723      -210.3909
  26   1.0000      -7.728925      -210.3147
  27   1.0000      -7.728755      -210.3101
  28   1.0000      -7.669311      -208.6926
  29   1.0000      -7.669246      -208.6908
  30   1.0000      -7.664170      -208.5527
  31   1.0000      -7.664084      -208.5503
  32   1.0000      -5.697086      -155.0256
  33   1.0000      -5.697006      -155.0234
  34   1.0000      -5.694163      -154.9461
  35   1.0000      -5.693997      -154.9415
  36   1.0000      -5.693153      -154.9186
  37   1.0000      -5.693071      -154.9163
  38   1.0000      -5.690315      -154.8413
  39   1.0000      -5.690136      -154.8365
  40   1.0000      -5.686613      -154.7406
  41   1.0000      -5.686542      -154.7387
  42   1.0000      -5.683577      -154.6580
  43   1.0000      -5.683402      -154.6532
  44   1.0000      -5.634389      -153.3195
  45   1.0000      -5.634306      -153.3172
  46   1.0000      -5.628860      -153.1691
  47   1.0000      -5.628758      -153.1663
  48   1.0000      -5.627923      -153.1436
  49   1.0000      -5.627822      -153.1408
  50   1.0000      -5.627166      -153.1230
  51   1.0000      -5.627122      -153.1218
  52   1.0000      -5.622957      -153.0085
  53   1.0000      -5.622870      -153.0061
  54   1.0000      -5.622177      -152.9872
  55   1.0000      -5.622097      -152.9850
  56   1.0000      -2.365357       -64.3646
  57   1.0000      -1.432048       -38.9680
  58   1.0000      -1.378160       -37.5016
  59   1.0000      -1.377177       -37.4749
  60   1.0000      -0.643798       -17.5186
  61   1.0000      -0.643725       -17.5167
  62   1.0000      -0.625807       -17.0291
  63   1.0000      -0.594250       -16.1704
  64   1.0000      -0.593815       -16.1585
  65   1.0000      -0.573482       -15.6052
  66   1.0000      -0.573285       -15.5999
  67   1.0000      -0.490901       -13.3581
  68   1.0000      -0.489779       -13.3276
  69   1.0000      -0.486252       -13.2316
  70   1.0000      -0.485907       -13.2222
  71   1.0000      -0.423696       -11.5293
  72   1.0000      -0.421100       -11.4587
  73   1.0000      -0.411569       -11.1994
  74   1.0000      -0.406758       -11.0684
  75   1.0000      -0.376142       -10.2354
  76   1.0000      -0.372980       -10.1493
  77   1.0000      -0.292384        -7.9562
  78   1.0000      -0.292193        -7.9510
  79   1.0000      -0.279161        -7.5964
  80   1.0000      -0.278982        -7.5915
  81   1.0000      -0.257950        -7.0192
  82   1.0000      -0.253449        -6.8967
  83   1.0000      -0.241328        -6.5669
  84   1.0000      -0.238786        -6.4977
  85   1.0000      -0.197029        -5.3614
  86   1.0000      -0.196810        -5.3555
  87   1.0000      -0.190586        -5.1861
  88   1.0000      -0.187231        -5.0948
  89   1.0000      -0.183857        -5.0030
  90   1.0000      -0.183364        -4.9896
  91   1.0000      -0.176281        -4.7968
  92   1.0000      -0.153368        -4.1734
  93   1.0000      -0.145405        -3.9567
  94   1.0000      -0.143562        -3.9065
  95   1.0000      -0.141589        -3.8528
  96   1.0000      -0.140950        -3.8355
  97   1.0000      -0.096909        -2.6370
  98   1.0000      -0.095861        -2.6085
  99   1.0000      -0.089260        -2.4289
 100   1.0000      -0.085202        -2.3185
 101   1.0000      -0.081890        -2.2283
 102   1.0000      -0.079365        -2.1596
 103   1.0000      -0.070727        -1.9246
 104   1.0000      -0.046428        -1.2634
 105   1.0000      -0.038200        -1.0395
 106   1.0000      -0.037037        -1.0078
 107   1.0000      -0.034272        -0.9326
 108   1.0000      -0.031924        -0.8687
 109   1.0000      -0.012886        -0.3506
 110   1.0000      -0.005146        -0.1400
 111   1.0000      -0.002888        -0.0786
 112   1.0000       0.007376         0.2007
 113   1.0000       0.012307         0.3349
 114   1.0000       0.035062         0.9541
 115   1.0000       0.059500         1.6191
 116   0.0000       0.185040         5.0352
 117   0.0000       0.186746         5.0816
 118   0.0000       0.192685         5.2432
 119   0.0000       0.197519         5.3748
 120   0.0000       0.197875         5.3845

MULLIKEN ATOMIC CHARGES AND SPIN POPULATIONS
--------------------------------------------
   0 V :    0.449168    1.198255
   1 S :   -0.263052   -0.025534
   2 S :   -0.247051   -0.022924
   3 S :   -0.246677   -0.023252
   4 S :   -0.263236   -0.025531
   5 O :   -0.507049   -0.138719
   6 C :   -0.077377    0.012581
   7 C :   -0.151168    0.005898
   8 C :   -0.153084    0.005945
   9 C :   -0.074683    0.012666
  10 S :   -0.037778    0.000339
  11 S :   -0.046914   -0.000634
  12 S :   -0.037631    0.000306
  13 S :   -0.046920   -0.000681
  14 C :   -0.298331    0.000174
  15 C :   -0.386887    0.000427
  16 C :   -0.384469    0.000386
  17 C :   -0.296458    0.000189
  18 C :   -0.080824    0.000133
  19 H :    0.156983   -0.000070
  20 H :    0.092245    0.000067
  21 H :    0.042025    0.000055
  22 H :    0.079081   -0.000004
  23 H :    0.103733   -0.000016
  24 H :    0.141612   -0.000112
  25 C :   -0.080663    0.000137
  26 H :    0.103353   -0.000014
  27 H :    0.141206   -0.000116
  28 H :    0.079065   -0.000013
  29 H :    0.041816    0.000052
  30 H :    0.158325   -0.000072
  31 H :    0.091640    0.000080
Sum of atomic charges         :   -2.0000000

LOEWDIN ATOMIC CHARGES AND SPIN POPULATIONS
-------------------------------------------
   0 V :   -0.244346    1.152097
   1 S :    0.075187   -0.018421
   2 S :    0.101899   -0.014225
   3 S :    0.102102   -0.014424
   4 S :    0.074820   -0.018418
   5 O :   -0.351032   -0.124161
   6 C :   -0.550160    0.013128
   7 C :   -0.556329    0.007338
   8 C :   -0.556544    0.007387
   9 C :   -0.549493    0.013088
  10 S :    0.333684   -0.000621
  11 S :    0.339386   -0.001368
  12 S :    0.333174   -0.000624
  13 S :    0.339664   -0.001408
  14 C :   -0.292126    0.000098
  15 C :   -0.294458    0.000265
  16 C :   -0.294492    0.000245
  17 C :   -0.292242    0.000107
  18 C :   -0.186485   -0.000039
  19 H :    0.068426   -0.000001
  20 H :    0.045586    0.000032
  21 H :    0.045469    0.000019
  22 H :    0.053670    0.000008
  23 H :    0.049512   -0.000014
  24 H :    0.064465   -0.000048
  25 C :   -0.186639   -0.000043
  26 H :    0.049623   -0.000012
  27 H :    0.064272   -0.000050
  28 H :    0.053737    0.000006
  29 H :    0.045332    0.000019
  30 H :    0.068835    0.000000
  31 H :    0.045504    0.000039

  Mayer bond orders larger than 0.100000
B(  0-V ,  1-S ) :   0.7618 B(  0-V ,  2-S ) :   0.8158 B(  0-V ,  3-S ) :   0.8156
B(  0-V ,  4-S ) :   0.7605 B(  0-V ,  5-O ) :   2.1073 B(  1-S ,  8-C ) :   1.1519
B(  2-S ,  6-C ) :   1.1146 B(  3-S ,  9-C ) :   1.1135 B(  4-S ,  7-C ) :   1.1512
B(  6-C ,  7-C ) :   1.5173 B(  6-C , 10-S ) :   0.9358 B(  7-C , 11-S ) :   0.9858
B(  8-C ,  9-C ) :   1.5178 B(  8-C , 13-S ) :   0.9869 B(  9-C , 12-S ) :   0.9358
B( 10-S , 16-C ) :   1.0270 B( 11-S , 14-C ) :   0.9742 B( 12-S , 15-C ) :   1.0271
B( 13-S , 17-C ) :   0.9735 B( 14-C , 18-C ) :   0.8840 B( 14-C , 23-H ) :   0.9711
B( 14-C , 24-H ) :   0.9696 B( 15-C , 25-C ) :   0.8680 B( 15-C , 30-H ) :   0.9787
B( 15-C , 31-H ) :   0.9697 B( 16-C , 18-C ) :   0.8688 B( 16-C , 19-H ) :   0.9785
B( 16-C , 20-H ) :   0.9698 B( 17-C , 25-C ) :   0.8843 B( 17-C , 26-H ) :   0.9713
B( 17-C , 27-H ) :   0.9690 B( 18-C , 21-H ) :   0.9501 B( 18-C , 22-H ) :   0.9732
B( 25-C , 28-H ) :   0.9733 B( 25-C , 29-H ) :   0.9499

FINAL SINGLE POINT ENERGY     -4592.709133783929

DIPOLE MOMENT
-------------
                                X             Y             Z
Electronic contribution:     -0.79429       8.34621      25.34908
Nuclear contribution   :      0.88409      -9.30319     -28.24293
                        -----------------------------------------
Total Dipole Moment    :      0.08980      -0.95698      -2.89385
                        -----------------------------------------
Magnitude (a.u.)       :      3.04930
Magnitude (Debye)      :      7.75070

Rotational constants in cm-1:     0.012754     0.002548     0.002430
Rotational constants in MHz :   382.360792    76.373043    72.854975

                             ****ORCA TERMINATED NORMALLY****
TOTAL RUN TIME: 0 days 0 hours 43 minutes 23 seconds 234 msec
