                         Program Version 5.0.4 -  RELEASE  -
|  1> ! nofrozencore ReducedPop printbasis
|  2> ! B3LYP TZVP
|  3>
|  4> %basis
|  5> newgto V "CP(PPP)" end
|  6> end
|  7>
|  8> %pal
|  9> nprocs 8
| 10> end
| 11>
| 12> % sym SymThresh 1e-2 end
| 13> * xyz -2 2
| 14> V -0.4096085782230817 0.46795868005589875 -0.9258118359631219
| 15> S 1.7064333384069548 -0.6177141654838397 -1.5156639052612881
| 16> S -1.3221991133337794 -1.7985532806824276 -0.7585447435615418
| 17> S 1.0560840145002244 2.1020708172127716 0.16011043757519663
| 18> S -1.9860094307872223 0.9342004813426689 0.892253002840192
| 19> O -0.9917736237839283 1.1367176398601075 -2.254040342180983
| 20> C -2.79608830552986 -1.6034870567355997 0.2045055029908955
| 21> C -3.071718077265479 -0.46507089296288284 0.8933905095014028
| 22> C 2.9199819998021783 0.6340616665685584 -1.2280672128648227
| 23> C 2.6490487312871864 1.768565580311357 -0.5292441301721741
| 24> S -3.8981557204523525 -3.0359274251381327 0.18862311542263893
| 25> S -4.5709549642163205 -0.25136688728725726 1.880351737900037
| 26> S 3.9003737549706377 3.019803738335162 -0.18907296067980633
| 27> S 4.558040214284733 0.2685372400387849 -1.8850663062358115
| 28> C -4.261547419539134 -1.5787887355286074 3.2213282585257166
| 29> C 5.045245863381326 2.2181916209285206 0.9735922128977402
| 30> C -3.7886954636129615 -3.5433140374151737 2.0284997513071437
| 31> C 5.584521352172009 -0.03388641602721545 -0.415788131376702
| 32> C -4.616351992696175 -2.9128907111210776 2.9701757410107232
| 33> H -2.7317690645823713 -3.6805512543661836 2.333260657377411
| 34> H -4.260096360920606 -4.547679717416654 1.930892252990101
| 35> H -4.640025929773306 -3.491034344337962 3.912929476307512
| 36> H -5.639124235001859 -2.9158108522460524 2.5691816458549295
| 37> H -5.051118207246182 -1.2515818127851956 3.9352663917854973
| 38> H -3.2728331072739483 -1.4269282290932965 3.698792663008596
| 39> C 6.129472294280565 1.2816672177221244 0.2877999363887387
| 40> H 6.38925987220325 -0.7294373504736954 -0.6932317430630365
| 41> H 4.923422690738076 -0.5576286711970513 0.28503284820429914
| 42> H 6.728628550938541 1.8632728617616938 -0.42201285619527823
| 43> H 6.811316513862721 0.9508996643632915 1.0882710769237445
| 44> H 4.4056639733419525 1.600939316469514 1.615764636702055
| 45> H 5.497138556732907 2.995235153890262 1.6062877990588802
| 46> *
| 47>
| 48> % eprnmr
| 49> gtensor true
| 50> Nuclei = all H {aiso,adip,aorb,fgrad,rho}
| 51> Nuclei = all V {aiso,adip,aorb,fgrad,rho}
| 52> end
| 53>
| 54>                          ****END OF INPUT****

CARTESIAN COORDINATES (ANGSTROEM)
---------------------------------
  V     -0.410116    0.468421   -0.926780
  S      1.705926   -0.617252   -1.516632
  S     -1.322707   -1.798091   -0.759512
  S      1.055576    2.102533    0.159143
  S     -1.986517    0.934663    0.891285
  O     -0.992281    1.137180   -2.255008
  C     -2.796596   -1.603024    0.203538
  C     -3.072226   -0.464608    0.892423
  C      2.919474    0.634524   -1.229035
  C      2.648541    1.769028   -0.530212
  S     -3.898663   -3.035465    0.187655
  S     -4.571463   -0.250904    1.879384
  S      3.899866    3.020266   -0.190041
  S      4.557533    0.269000   -1.886034
  C     -4.262055   -1.578326    3.220361
  C      5.044738    2.218654    0.972624
  C     -3.789203   -3.542851    2.027532
  C      5.584014   -0.033424   -0.416756
  C     -4.616860   -2.912428    2.969208
  H     -2.732277   -3.680089    2.332293
  H     -4.260604   -4.547217    1.929925
  H     -4.640534   -3.490572    3.911962
  H     -5.639632   -2.915348    2.568214
  H     -5.051626   -1.251119    3.934299
  H     -3.273341   -1.426466    3.697825
  C      6.128965    1.282130    0.286832
  H      6.388752   -0.728975   -0.694199
  H      4.922915   -0.557166    0.284065
  H      6.728121    1.863736   -0.422981
  H      6.810809    0.951362    1.087303
  H      4.405156    1.601402    1.614797
  H      5.496631    2.995698    1.605320

 Total Charge           Charge          ....   -2
 Multiplicity           Mult            ....    2
 Number of Electrons    NEL             ....  233
 Basis Dimension        Dim             ....  517

ORBITAL ENERGIES
----------------
                 SPIN UP ORBITALS
  NO   OCC          E(Eh)            E(eV)
   0   1.0000    -196.639751     -5350.8397
   1   1.0000     -88.681737     -2413.1527
   2   1.0000     -88.681682     -2413.1513
   3   1.0000     -88.673982     -2412.9417
   4   1.0000     -88.673931     -2412.9403
   5   1.0000     -88.612038     -2411.2562
   6   1.0000     -88.612007     -2411.2553
   7   1.0000     -88.611099     -2411.2306
   8   1.0000     -88.611051     -2411.2293
   9   1.0000     -22.015569      -599.0741
  10   1.0000     -18.856753      -513.1183
  11   1.0000     -18.522392      -504.0199
  12   1.0000     -18.516617      -503.8628
  13   1.0000     -18.516583      -503.8618
  14   1.0000     -10.019238      -272.6373
  15   1.0000     -10.019216      -272.6367
  16   1.0000     -10.010568      -272.4014
  17   1.0000     -10.010562      -272.4012
  18   1.0000     -10.009732      -272.3787
  19   1.0000      -9.992357      -271.9058
  20   1.0000      -9.992210      -271.9018
  21   1.0000      -9.991496      -271.8824
  22   1.0000      -9.990589      -271.8578
  23   1.0000      -9.989861      -271.8379
  24   1.0000      -7.734198      -210.4582
  25   1.0000      -7.734152      -210.4570
  26   1.0000      -7.728203      -210.2951
  27   1.0000      -7.728174      -210.2943
  28   1.0000      -7.666458      -208.6149
  29   1.0000      -7.666417      -208.6138
  30   1.0000      -7.665486      -208.5885
  31   1.0000      -7.665463      -208.5879
  32   1.0000      -5.699525      -155.0920
  33   1.0000      -5.699479      -155.0907
  34   1.0000      -5.695725      -154.9886
  35   1.0000      -5.695682      -154.9874
  36   1.0000      -5.693410      -154.9256
  37   1.0000      -5.693386      -154.9249
  38   1.0000      -5.689464      -154.8182
  39   1.0000      -5.689432      -154.8173
  40   1.0000      -5.688932      -154.8037
  41   1.0000      -5.688884      -154.8024
  42   1.0000      -5.682956      -154.6411
  43   1.0000      -5.682917      -154.6400
  44   1.0000      -5.631305      -153.2356
  45   1.0000      -5.631263      -153.2345
  46   1.0000      -5.630349      -153.2096
  47   1.0000      -5.630328      -153.2090
  48   1.0000      -5.624900      -153.0613
  49   1.0000      -5.624859      -153.0602
  50   1.0000      -5.624440      -153.0488
  51   1.0000      -5.624414      -153.0481
  52   1.0000      -5.623925      -153.0348
  53   1.0000      -5.623888      -153.0338
  54   1.0000      -5.623456      -153.0220
  55   1.0000      -5.623432      -153.0214
  56   1.0000      -2.409224       -65.5583
  57   1.0000      -1.450552       -39.4715
  58   1.0000      -1.439010       -39.1575
  59   1.0000      -1.437926       -39.1279
  60   1.0000      -0.669392       -18.2151
  61   1.0000      -0.637841       -17.3565
  62   1.0000      -0.617795       -16.8110
  63   1.0000      -0.601599       -16.3703
  64   1.0000      -0.586953       -15.9718
  65   1.0000      -0.578634       -15.7454
  66   1.0000      -0.569896       -15.5076
  67   1.0000      -0.491877       -13.3846
  68   1.0000      -0.490554       -13.3487
  69   1.0000      -0.488422       -13.2906
  70   1.0000      -0.484692       -13.1891
  71   1.0000      -0.426566       -11.6075
  72   1.0000      -0.418246       -11.3811
  73   1.0000      -0.413167       -11.2428
  74   1.0000      -0.400884       -10.9086
  75   1.0000      -0.375568       -10.2197
  76   1.0000      -0.372877       -10.1465
  77   1.0000      -0.303713        -8.2645
  78   1.0000      -0.298951        -8.1349
  79   1.0000      -0.286854        -7.8057
  80   1.0000      -0.270173        -7.3518
  81   1.0000      -0.260052        -7.0764
  82   1.0000      -0.258320        -7.0292
  83   1.0000      -0.249988        -6.8025
  84   1.0000      -0.235158        -6.3990
  85   1.0000      -0.197764        -5.3814
  86   1.0000      -0.195955        -5.3322
  87   1.0000      -0.189784        -5.1643
  88   1.0000      -0.185005        -5.0343
  89   1.0000      -0.182696        -4.9714
  90   1.0000      -0.176237        -4.7956
  91   1.0000      -0.170491        -4.6393
  92   1.0000      -0.150534        -4.0962
  93   1.0000      -0.147498        -4.0136
  94   1.0000      -0.143667        -3.9094
  95   1.0000      -0.143567        -3.9067
  96   1.0000      -0.139972        -3.8088
  97   1.0000      -0.096851        -2.6355
  98   1.0000      -0.095548        -2.6000
  99   1.0000      -0.088718        -2.4141
 100   1.0000      -0.082973        -2.2578
 101   1.0000      -0.080916        -2.2018
 102   1.0000      -0.079546        -2.1646
 103   1.0000      -0.069646        -1.8952
 104   1.0000      -0.049208        -1.3390
 105   1.0000      -0.038877        -1.0579
 106   1.0000      -0.038752        -1.0545
 107   1.0000      -0.034979        -0.9518
 108   1.0000      -0.032250        -0.8776
 109   1.0000      -0.012884        -0.3506
 110   1.0000      -0.003973        -0.1081
 111   1.0000      -0.003277        -0.0892
 112   1.0000       0.006517         0.1773
 113   1.0000       0.010967         0.2984
 114   1.0000       0.016635         0.4527
 115   1.0000       0.034200         0.9306
 116   1.0000       0.060438         1.6446
 117   0.0000       0.185325         5.0430
 118   0.0000       0.188234         5.1221
 119   0.0000       0.194742         5.2992
 120   0.0000       0.199587         5.4310
 121   0.0000       0.204721         5.5707

                 SPIN DOWN ORBITALS
  NO   OCC          E(Eh)            E(eV)
   0   1.0000    -196.639892     -5350.8435
   1   1.0000     -88.681750     -2413.1531
   2   1.0000     -88.681695     -2413.1516
   3   1.0000     -88.673996     -2412.9421
   4   1.0000     -88.673944     -2412.9407
   5   1.0000     -88.612198     -2411.2605
   6   1.0000     -88.612166     -2411.2596
   7   1.0000     -88.611260     -2411.2350
   8   1.0000     -88.611211     -2411.2336
   9   1.0000     -22.000898      -598.6749
  10   1.0000     -18.860329      -513.2156
  11   1.0000     -18.517261      -503.8803
  12   1.0000     -18.501127      -503.4413
  13   1.0000     -18.500444      -503.4227
  14   1.0000     -10.019235      -272.6372
  15   1.0000     -10.019212      -272.6366
  16   1.0000     -10.010564      -272.4013
  17   1.0000     -10.010557      -272.4011
  18   1.0000     -10.009731      -272.3786
  19   1.0000      -9.992357      -271.9058
  20   1.0000      -9.991954      -271.8949
  21   1.0000      -9.991243      -271.8755
  22   1.0000      -9.990335      -271.8508
  23   1.0000      -9.989608      -271.8311
  24   1.0000      -7.734212      -210.4586
  25   1.0000      -7.734166      -210.4573
  26   1.0000      -7.728217      -210.2955
  27   1.0000      -7.728188      -210.2947
  28   1.0000      -7.666606      -208.6190
  29   1.0000      -7.666565      -208.6178
  30   1.0000      -7.665635      -208.5925
  31   1.0000      -7.665612      -208.5919
  32   1.0000      -5.699541      -155.0924
  33   1.0000      -5.699495      -155.0911
  34   1.0000      -5.695747      -154.9891
  35   1.0000      -5.695703      -154.9880
  36   1.0000      -5.693427      -154.9260
  37   1.0000      -5.693403      -154.9254
  38   1.0000      -5.689484      -154.8187
  39   1.0000      -5.689452      -154.8178
  40   1.0000      -5.688949      -154.8042
  41   1.0000      -5.688901      -154.8029
  42   1.0000      -5.682973      -154.6415
  43   1.0000      -5.682934      -154.6405
  44   1.0000      -5.631476      -153.2402
  45   1.0000      -5.631434      -153.2391
  46   1.0000      -5.630521      -153.2143
  47   1.0000      -5.630500      -153.2137
  48   1.0000      -5.625287      -153.0718
  49   1.0000      -5.625248      -153.0708
  50   1.0000      -5.624578      -153.0525
  51   1.0000      -5.624550      -153.0518
  52   1.0000      -5.624320      -153.0455
  53   1.0000      -5.624282      -153.0445
  54   1.0000      -5.623591      -153.0257
  55   1.0000      -5.623567      -153.0250
  56   1.0000      -2.365038       -64.3559
  57   1.0000      -1.431722       -38.9591
  58   1.0000      -1.377589       -37.4861
  59   1.0000      -1.376943       -37.4685
  60   1.0000      -0.669379       -18.2147
  61   1.0000      -0.637768       -17.3545
  62   1.0000      -0.625448       -17.0193
  63   1.0000      -0.601376       -16.3643
  64   1.0000      -0.586775       -15.9670
  65   1.0000      -0.578630       -15.7453
  66   1.0000      -0.569889       -15.5075
  67   1.0000      -0.491870       -13.3845
  68   1.0000      -0.490578       -13.3493
  69   1.0000      -0.488459       -13.2916
  70   1.0000      -0.484712       -13.1897
  71   1.0000      -0.426859       -11.6154
  72   1.0000      -0.418521       -11.3885
  73   1.0000      -0.413204       -11.2439
  74   1.0000      -0.400948       -10.9104
  75   1.0000      -0.375528       -10.2186
  76   1.0000      -0.372900       -10.1471
  77   1.0000      -0.303692        -8.2639
  78   1.0000      -0.298942        -8.1346
  79   1.0000      -0.286837        -7.8052
  80   1.0000      -0.270145        -7.3510
  81   1.0000      -0.259914        -7.0726
  82   1.0000      -0.258255        -7.0275
  83   1.0000      -0.249853        -6.7988
  84   1.0000      -0.235087        -6.3970
  85   1.0000      -0.197759        -5.3813
  86   1.0000      -0.195663        -5.3243
  87   1.0000      -0.189515        -5.1570
  88   1.0000      -0.184199        -5.0123
  89   1.0000      -0.182487        -4.9657
  90   1.0000      -0.175058        -4.7636
  91   1.0000      -0.170309        -4.6343
  92   1.0000      -0.149886        -4.0786
  93   1.0000      -0.147335        -4.0092
  94   1.0000      -0.143460        -3.9038
  95   1.0000      -0.143349        -3.9007
  96   1.0000      -0.139796        -3.8041
  97   1.0000      -0.095304        -2.5933
  98   1.0000      -0.095057        -2.5866
  99   1.0000      -0.088861        -2.4180
 100   1.0000      -0.082855        -2.2546
 101   1.0000      -0.081794        -2.2257
 102   1.0000      -0.080077        -2.1790
 103   1.0000      -0.070869        -1.9284
 104   1.0000      -0.045210        -1.2302
 105   1.0000      -0.038832        -1.0567
 106   1.0000      -0.038217        -1.0399
 107   1.0000      -0.034192        -0.9304
 108   1.0000      -0.032075        -0.8728
 109   1.0000      -0.011974        -0.3258
 110   1.0000      -0.005175        -0.1408
 111   1.0000      -0.002259        -0.0615
 112   1.0000       0.007227         0.1967
 113   1.0000       0.011878         0.3232
 114   1.0000       0.034464         0.9378
 115   1.0000       0.059653         1.6232
 116   0.0000       0.185601         5.0505
 117   0.0000       0.186127         5.0648
 118   0.0000       0.188462         5.1283
 119   0.0000       0.195500         5.3198
 120   0.0000       0.199802         5.4369

MULLIKEN ATOMIC CHARGES AND SPIN POPULATIONS
--------------------------------------------
   0 V :    0.447961    1.199357
   1 S :   -0.252065   -0.024098
   2 S :   -0.257057   -0.024313
   3 S :   -0.252381   -0.024031
   4 S :   -0.257166   -0.024216
   5 O :   -0.507043   -0.138788
   6 C :   -0.107713    0.008893
   7 C :   -0.105918    0.008908
   8 C :   -0.120587    0.008947
   9 C :   -0.120833    0.008883
  10 S :   -0.046309   -0.000195
  11 S :   -0.046243   -0.000228
  12 S :   -0.041182   -0.000164
  13 S :   -0.041108   -0.000192
  14 C :   -0.324935    0.000231
  15 C :   -0.344761    0.000318
  16 C :   -0.323517    0.000217
  17 C :   -0.344759    0.000339
  18 C :   -0.063368    0.000162
  19 H :    0.137885   -0.000076
  20 H :    0.076962    0.000026
  21 H :    0.057392    0.000070
  22 H :    0.076700    0.000004
  23 H :    0.077035    0.000027
  24 H :    0.138265   -0.000077
  25 C :   -0.094985    0.000131
  26 H :    0.109633    0.000028
  27 H :    0.150118   -0.000118
  28 H :    0.079526    0.000015
  29 H :    0.040532    0.000027
  30 H :    0.150259   -0.000114
  31 H :    0.109663    0.000026
Sum of atomic charges         :   -2.0000000

LOEWDIN ATOMIC CHARGES AND SPIN POPULATIONS
-------------------------------------------
   0 V :   -0.242795    1.153271
   1 S :    0.089825   -0.016271
   2 S :    0.084416   -0.016512
   3 S :    0.089540   -0.016216
   4 S :    0.084246   -0.016467
   5 O :   -0.351543   -0.124237
   6 C :   -0.553361    0.010042
   7 C :   -0.552707    0.009993
   8 C :   -0.553215    0.009976
   9 C :   -0.553652    0.009990
  10 S :    0.324692   -0.001047
  11 S :    0.324380   -0.001068
  12 S :    0.343412   -0.001024
  13 S :    0.343379   -0.001037
  14 C :   -0.275506    0.000174
  15 C :   -0.304935    0.000167
  16 C :   -0.275613    0.000165
  17 C :   -0.305080    0.000177
  18 C :   -0.203155   -0.000031
  19 H :    0.067909   -0.000026
  20 H :    0.045274    0.000004
  21 H :    0.056531    0.000025
  22 H :    0.059285    0.000012
  23 H :    0.045284    0.000005
  24 H :    0.068041   -0.000026
  25 C :   -0.183275   -0.000029
  26 H :    0.050186    0.000009
  27 H :    0.067335   -0.000028
  28 H :    0.050919    0.000010
  29 H :    0.042646    0.000016
  30 H :    0.067378   -0.000028
  31 H :    0.050157    0.000008

  Mayer bond orders larger than 0.100000
B(  0-V ,  1-S ) :   0.7872 B(  0-V ,  2-S ) :   0.7919 B(  0-V ,  3-S ) :   0.7892
B(  0-V ,  4-S ) :   0.7892 B(  0-V ,  5-O ) :   2.1074 B(  1-S ,  8-C ) :   1.1401
B(  2-S ,  6-C ) :   1.1301 B(  3-S ,  9-C ) :   1.1386 B(  4-S ,  7-C ) :   1.1315
B(  6-C ,  7-C ) :   1.5505 B(  6-C , 10-S ) :   0.9442 B(  7-C , 11-S ) :   0.9441
B(  8-C ,  9-C ) :   1.4987 B(  8-C , 13-S ) :   0.9570 B(  9-C , 12-S ) :   0.9570
B( 10-S , 16-C ) :   1.0133 B( 11-S , 14-C ) :   1.0133 B( 12-S , 15-C ) :   1.0050
B( 13-S , 17-C ) :   1.0057 B( 14-C , 18-C ) :   0.8807 B( 14-C , 23-H ) :   0.9914
B( 14-C , 24-H ) :   0.9601 B( 15-C , 25-C ) :   0.8745 B( 15-C , 30-H ) :   0.9802
B( 15-C , 31-H ) :   0.9592 B( 16-C , 18-C ) :   0.8808 B( 16-C , 19-H ) :   0.9599
B( 16-C , 20-H ) :   0.9915 B( 17-C , 25-C ) :   0.8744 B( 17-C , 26-H ) :   0.9592
B( 17-C , 27-H ) :   0.9801 B( 18-C , 21-H ) :   0.9478 B( 18-C , 22-H ) :   0.9824
B( 25-C , 28-H ) :   0.9715 B( 25-C , 29-H ) :   0.9522

FINAL SINGLE POINT ENERGY     -4592.683075135172

DIPOLE MOMENT
-------------
                                X             Y             Z
Electronic contribution:     -9.57160      11.30711     -22.21536
Nuclear contribution   :     10.48616     -12.66031      24.78545
                        -----------------------------------------
Total Dipole Moment    :      0.91456      -1.35319       2.57009
                        -----------------------------------------
Magnitude (a.u.)       :      3.04515
Magnitude (Debye)      :      7.74015

Rotational constants in cm-1:     0.012785     0.002548     0.002432
Rotational constants in MHz :   383.279985    76.387505    72.920175

                             ****ORCA TERMINATED NORMALLY****
TOTAL RUN TIME: 0 days 0 hours 27 minutes 43 seconds 306 msec
