                         Program Version 5.0.4 -  RELEASE  -
|  1> ! nofrozencore ReducedPop printbasis
|  2> ! B3LYP TZVP
|  3>
|  4> %basis
|  5> newgto V "CP(PPP)" end
|  6> end
|  7>
|  8> %pal
|  9> nprocs 8
| 10> end
| 11>
| 12> % sym SymThresh 1e-2 end
| 13> * xyz -2 2
| 14> V 0.1109642597523541 1.1086966023432359 -0.0510299027941134
| 15> S 1.6673336983294524 0.2835944579795831 1.652710629175385
| 16> S 1.6477159393607679 0.12051024571325943 -1.6817740661410474
| 17> S -1.5778493737852126 0.5967954099252472 1.6474228468659067
| 18> S -1.594380933538454 0.4646886252594868 -1.6895470944452824
| 19> O 0.2729669197516029 2.695635754574202 -0.11914565046401587
| 20> C 0.68089000759332 -0.016487148172986986 -3.1557458650681447
| 21> C -0.6709520144278978 0.12542081241406217 -3.158555882970181
| 22> C 0.7128477386674709 0.28609661224318295 3.1362251156544305
| 23> C -0.6410552100831377 0.40829687846605023 3.1396418025682715
| 24> S 1.6245037987531488 -0.3891379580079299 -4.647446820553303
| 25> S -1.6653025932080334 -0.04893716440687374 -4.654090573901996
| 26> S -1.6288540934015026 0.37834425200901595 4.653753318573719
| 27> S 1.6630015520924688 0.053492025117176545 4.648109123601758
| 28> C -1.4851917645256865 -1.8407849665660927 -5.0642668460272064
| 29> C -1.4418160613335924 -1.3723191706313813 5.204519607672074
| 30> C 1.0859049299046335 -2.1062725449932187 -5.062408893287622
| 31> C 1.132491323883209 -1.6130968244504318 5.2459899815385835
| 32> C -0.22510309515655347 -2.232607363687775 -5.8362047505113335
| 33> H 1.048267432430115 -2.6610269866619376 -4.122531797472066
| 34> H 1.9011372872988996 -2.5207794726643185 -5.6638464239074295
| 35> H -0.3333361621303404 -3.2842899632997873 -6.147535778612881
| 36> H -0.1561801750853347 -1.6347943629811785 -6.751484456779877
| 37> H -2.3709843294399997 -2.075809386507273 -5.6627253781460425
| 38> H -1.5563304579050397 -2.400037153984032 -4.128779583593597
| 39> C -0.1572476592531201 -1.6808625207957741 6.017865685925824
| 40> H 1.8425921596104502 -2.07806464544047 5.962946624686026
| 41> H 1.2429045108352894 -2.0873756119505797 4.237951292568525
| 42> H 0.14586782258897726 -1.022653757899781 6.873744690822871
| 43> H -0.2524233571080815 -2.7001026624542406 6.426124572280855
| 44> H -1.404241152641677 -2.207935663341079 4.450338170912763
| 45> H -2.4086207232391548 -1.4219232232160033 5.745477875844262
| 46> *
| 47>
| 48> % eprnmr
| 49> gtensor true
| 50> Nuclei = all H {aiso,adip,aorb,fgrad,rho}
| 51> Nuclei = all V {aiso,adip,aorb,fgrad,rho}
| 52> end
| 53>
| 54>                          ****END OF INPUT****

CARTESIAN COORDINATES (ANGSTROEM)
---------------------------------
  V      0.111088    1.109869   -0.051165
  S      1.667457    0.284767    1.652575
  S      1.647840    0.121683   -1.681910
  S     -1.577726    0.597968    1.647287
  S     -1.594257    0.465861   -1.689683
  O      0.273091    2.696808   -0.119281
  C      0.681014   -0.015315   -3.155881
  C     -0.670828    0.126593   -3.158691
  C      0.712971    0.287269    3.136090
  C     -0.640931    0.409469    3.139506
  S      1.624628   -0.387966   -4.647582
  S     -1.665179   -0.047765   -4.654226
  S     -1.628730    0.379517    4.653618
  S      1.663125    0.054664    4.647974
  C     -1.485068   -1.839613   -5.064402
  C     -1.441692   -1.371147    5.204384
  C      1.086029   -2.105100   -5.062544
  C      1.132615   -1.611924    5.245854
  C     -0.224979   -2.231435   -5.836340
  H      1.048391   -2.659855   -4.122667
  H      1.901261   -2.519607   -5.663982
  H     -0.333212   -3.283118   -6.147671
  H     -0.156056   -1.633622   -6.751620
  H     -2.370861   -2.074637   -5.662861
  H     -1.556207   -2.398865   -4.128915
  C     -0.157124   -1.679690    6.017730
  H      1.842716   -2.076892    5.962811
  H      1.243028   -2.086203    4.237816
  H      0.145992   -1.021481    6.873609
  H     -0.252300   -2.698930    6.425989
  H     -1.404117   -2.206763    4.450203
  H     -2.408497   -1.420751    5.745342

 Total Charge           Charge          ....   -2
 Multiplicity           Mult            ....    2
 Number of Electrons    NEL             ....  233
 Basis Dimension        Dim             ....  517

ORBITAL ENERGIES
----------------
                 SPIN UP ORBITALS
  NO   OCC          E(Eh)            E(eV)
   0   1.0000    -196.640428     -5350.8581
   1   1.0000     -88.681200     -2413.1381
   2   1.0000     -88.676787     -2413.0181
   3   1.0000     -88.676521     -2413.0108
   4   1.0000     -88.674436     -2412.9541
   5   1.0000     -88.612651     -2411.2728
   6   1.0000     -88.612370     -2411.2652
   7   1.0000     -88.612233     -2411.2614
   8   1.0000     -88.612109     -2411.2581
   9   1.0000     -22.016239      -599.0923
  10   1.0000     -18.857488      -513.1383
  11   1.0000     -18.523066      -504.0383
  12   1.0000     -18.517287      -503.8810
  13   1.0000     -18.517250      -503.8800
  14   1.0000     -10.023833      -272.7624
  15   1.0000     -10.016693      -272.5681
  16   1.0000     -10.015622      -272.5389
  17   1.0000     -10.015414      -272.5333
  18   1.0000     -10.008684      -272.3501
  19   1.0000     -10.004798      -272.2444
  20   1.0000      -9.992641      -271.9136
  21   1.0000      -9.992021      -271.8967
  22   1.0000      -9.991581      -271.8847
  23   1.0000      -9.991297      -271.8770
  24   1.0000      -7.734597      -210.4691
  25   1.0000      -7.730413      -210.3552
  26   1.0000      -7.730184      -210.3490
  27   1.0000      -7.728304      -210.2978
  28   1.0000      -7.667137      -208.6334
  29   1.0000      -7.666773      -208.6235
  30   1.0000      -7.666645      -208.6200
  31   1.0000      -7.666576      -208.6181
  32   1.0000      -5.699941      -155.1033
  33   1.0000      -5.696005      -154.9962
  34   1.0000      -5.695660      -154.9868
  35   1.0000      -5.695428      -154.9805
  36   1.0000      -5.693472      -154.9272
  37   1.0000      -5.691771      -154.8810
  38   1.0000      -5.691537      -154.8746
  39   1.0000      -5.689613      -154.8222
  40   1.0000      -5.689242      -154.8121
  41   1.0000      -5.685163      -154.7012
  42   1.0000      -5.684930      -154.6948
  43   1.0000      -5.683093      -154.6448
  44   1.0000      -5.631969      -153.2537
  45   1.0000      -5.631623      -153.2443
  46   1.0000      -5.631487      -153.2406
  47   1.0000      -5.631413      -153.2386
  48   1.0000      -5.625565      -153.0794
  49   1.0000      -5.625193      -153.0693
  50   1.0000      -5.625130      -153.0676
  51   1.0000      -5.625104      -153.0669
  52   1.0000      -5.624988      -153.0637
  53   1.0000      -5.624744      -153.0571
  54   1.0000      -5.624625      -153.0538
  55   1.0000      -5.624563      -153.0521
  56   1.0000      -2.409931       -65.5776
  57   1.0000      -1.451296       -39.4918
  58   1.0000      -1.439714       -39.1766
  59   1.0000      -1.438632       -39.1472
  60   1.0000      -0.644898       -17.5486
  61   1.0000      -0.643908       -17.5216
  62   1.0000      -0.618530       -16.8311
  63   1.0000      -0.594924       -16.1887
  64   1.0000      -0.593786       -16.1577
  65   1.0000      -0.576295       -15.6818
  66   1.0000      -0.575917       -15.6715
  67   1.0000      -0.493679       -13.4337
  68   1.0000      -0.490531       -13.3480
  69   1.0000      -0.487370       -13.2620
  70   1.0000      -0.485360       -13.2073
  71   1.0000      -0.423627       -11.5275
  72   1.0000      -0.420768       -11.4497
  73   1.0000      -0.411908       -11.2086
  74   1.0000      -0.405799       -11.0423
  75   1.0000      -0.375331       -10.2133
  76   1.0000      -0.369889       -10.0652
  77   1.0000      -0.297148        -8.0858
  78   1.0000      -0.292966        -7.9720
  79   1.0000      -0.278638        -7.5821
  80   1.0000      -0.277788        -7.5590
  81   1.0000      -0.259566        -7.0632
  82   1.0000      -0.253300        -6.8926
  83   1.0000      -0.242173        -6.5898
  84   1.0000      -0.239690        -6.5223
  85   1.0000      -0.195622        -5.3231
  86   1.0000      -0.192941        -5.2502
  87   1.0000      -0.192268        -5.2319
  88   1.0000      -0.186230        -5.0676
  89   1.0000      -0.184740        -5.0270
  90   1.0000      -0.180317        -4.9067
  91   1.0000      -0.177396        -4.8272
  92   1.0000      -0.156472        -4.2578
  93   1.0000      -0.150841        -4.1046
  94   1.0000      -0.146458        -3.9853
  95   1.0000      -0.142923        -3.8891
  96   1.0000      -0.129327        -3.5192
  97   1.0000      -0.098958        -2.6928
  98   1.0000      -0.096268        -2.6196
  99   1.0000      -0.089312        -2.4303
 100   1.0000      -0.084468        -2.2985
 101   1.0000      -0.080565        -2.1923
 102   1.0000      -0.079815        -2.1719
 103   1.0000      -0.069757        -1.8982
 104   1.0000      -0.050397        -1.3714
 105   1.0000      -0.038988        -1.0609
 106   1.0000      -0.037874        -1.0306
 107   1.0000      -0.036009        -0.9798
 108   1.0000      -0.032157        -0.8750
 109   1.0000      -0.013477        -0.3667
 110   1.0000      -0.004580        -0.1246
 111   1.0000      -0.003540        -0.0963
 112   1.0000       0.005853         0.1593
 113   1.0000       0.010314         0.2806
 114   1.0000       0.015941         0.4338
 115   1.0000       0.033297         0.9061
 116   1.0000       0.059443         1.6175
 117   0.0000       0.186421         5.0728
 118   0.0000       0.193844         5.2748
 119   0.0000       0.194890         5.3032
 120   0.0000       0.196417         5.3448
 121   0.0000       0.211144         5.7455

                 SPIN DOWN ORBITALS
  NO   OCC          E(Eh)            E(eV)
   0   1.0000    -196.640569     -5350.8619
   1   1.0000     -88.681213     -2413.1385
   2   1.0000     -88.676800     -2413.0184
   3   1.0000     -88.676534     -2413.0112
   4   1.0000     -88.674450     -2412.9544
   5   1.0000     -88.612809     -2411.2771
   6   1.0000     -88.612530     -2411.2695
   7   1.0000     -88.612392     -2411.2658
   8   1.0000     -88.612269     -2411.2624
   9   1.0000     -22.001569      -598.6931
  10   1.0000     -18.861074      -513.2359
  11   1.0000     -18.517934      -503.8986
  12   1.0000     -18.501794      -503.4594
  13   1.0000     -18.501116      -503.4409
  14   1.0000     -10.023829      -272.7623
  15   1.0000     -10.016689      -272.5680
  16   1.0000     -10.015618      -272.5388
  17   1.0000     -10.015410      -272.5332
  18   1.0000     -10.008684      -272.3501
  19   1.0000     -10.004797      -272.2444
  20   1.0000      -9.992383      -271.9066
  21   1.0000      -9.991766      -271.8898
  22   1.0000      -9.991331      -271.8779
  23   1.0000      -9.991044      -271.8701
  24   1.0000      -7.734610      -210.4694
  25   1.0000      -7.730427      -210.3556
  26   1.0000      -7.730198      -210.3494
  27   1.0000      -7.728318      -210.2982
  28   1.0000      -7.667284      -208.6374
  29   1.0000      -7.666922      -208.6276
  30   1.0000      -7.666793      -208.6240
  31   1.0000      -7.666725      -208.6222
  32   1.0000      -5.699957      -155.1037
  33   1.0000      -5.696025      -154.9967
  34   1.0000      -5.695677      -154.9873
  35   1.0000      -5.695444      -154.9809
  36   1.0000      -5.693488      -154.9277
  37   1.0000      -5.691791      -154.8815
  38   1.0000      -5.691557      -154.8751
  39   1.0000      -5.689634      -154.8228
  40   1.0000      -5.689258      -154.8126
  41   1.0000      -5.685180      -154.7016
  42   1.0000      -5.684946      -154.6952
  43   1.0000      -5.683111      -154.6453
  44   1.0000      -5.632139      -153.2583
  45   1.0000      -5.631795      -153.2489
  46   1.0000      -5.631659      -153.2452
  47   1.0000      -5.631585      -153.2432
  48   1.0000      -5.625954      -153.0900
  49   1.0000      -5.625583      -153.0799
  50   1.0000      -5.625493      -153.0775
  51   1.0000      -5.625380      -153.0744
  52   1.0000      -5.625262      -153.0712
  53   1.0000      -5.624882      -153.0608
  54   1.0000      -5.624761      -153.0575
  55   1.0000      -5.624698      -153.0558
  56   1.0000      -2.365746       -64.3752
  57   1.0000      -1.432461       -38.9793
  58   1.0000      -1.378297       -37.5054
  59   1.0000      -1.377651       -37.4878
  60   1.0000      -0.644849       -17.5472
  61   1.0000      -0.643858       -17.5203
  62   1.0000      -0.626213       -17.0401
  63   1.0000      -0.594735       -16.1835
  64   1.0000      -0.593584       -16.1522
  65   1.0000      -0.576287       -15.6816
  66   1.0000      -0.575912       -15.6714
  67   1.0000      -0.493696       -13.4341
  68   1.0000      -0.490562       -13.3489
  69   1.0000      -0.487378       -13.2622
  70   1.0000      -0.485387       -13.2080
  71   1.0000      -0.423863       -11.5339
  72   1.0000      -0.421071       -11.4579
  73   1.0000      -0.411924       -11.2090
  74   1.0000      -0.405897       -11.0450
  75   1.0000      -0.375306       -10.2126
  76   1.0000      -0.369892       -10.0653
  77   1.0000      -0.297128        -8.0853
  78   1.0000      -0.292949        -7.9715
  79   1.0000      -0.278617        -7.5816
  80   1.0000      -0.277771        -7.5585
  81   1.0000      -0.259384        -7.0582
  82   1.0000      -0.253233        -6.8908
  83   1.0000      -0.242083        -6.5874
  84   1.0000      -0.239617        -6.5203
  85   1.0000      -0.195216        -5.3121
  86   1.0000      -0.192875        -5.2484
  87   1.0000      -0.192233        -5.2309
  88   1.0000      -0.185872        -5.0578
  89   1.0000      -0.184687        -5.0256
  90   1.0000      -0.178472        -4.8565
  91   1.0000      -0.177322        -4.8252
  92   1.0000      -0.156238        -4.2514
  93   1.0000      -0.150180        -4.0866
  94   1.0000      -0.146221        -3.9789
  95   1.0000      -0.142721        -3.8836
  96   1.0000      -0.129093        -3.5128
  97   1.0000      -0.098008        -2.6669
  98   1.0000      -0.095275        -2.5926
  99   1.0000      -0.089388        -2.4324
 100   1.0000      -0.084327        -2.2947
 101   1.0000      -0.082411        -2.2425
 102   1.0000      -0.079631        -2.1669
 103   1.0000      -0.070961        -1.9309
 104   1.0000      -0.046267        -1.2590
 105   1.0000      -0.038906        -1.0587
 106   1.0000      -0.037384        -1.0173
 107   1.0000      -0.034999        -0.9524
 108   1.0000      -0.032107        -0.8737
 109   1.0000      -0.012579        -0.3423
 110   1.0000      -0.005920        -0.1611
 111   1.0000      -0.002524        -0.0687
 112   1.0000       0.006695         0.1822
 113   1.0000       0.011211         0.3051
 114   1.0000       0.033554         0.9130
 115   1.0000       0.058652         1.5960
 116   0.0000       0.184726         5.0266
 117   0.0000       0.187664         5.1066
 118   0.0000       0.194243         5.2856
 119   0.0000       0.195290         5.3141
 120   0.0000       0.196634         5.3507

MULLIKEN ATOMIC CHARGES AND SPIN POPULATIONS
--------------------------------------------
   0 V :    0.447207    1.199364
   1 S :   -0.253417   -0.023954
   2 S :   -0.253742   -0.024124
   3 S :   -0.252870   -0.024206
   4 S :   -0.253987   -0.024086
   5 O :   -0.506284   -0.138968
   6 C :   -0.117306    0.008894
   7 C :   -0.114974    0.008841
   8 C :   -0.134392    0.008685
   9 C :   -0.099478    0.009102
  10 S :   -0.044747   -0.000161
  11 S :   -0.044563   -0.000201
  12 S :   -0.043299   -0.000161
  13 S :   -0.044885   -0.000247
  14 C :   -0.338470    0.000286
  15 C :   -0.292886    0.000315
  16 C :   -0.338385    0.000273
  17 C :   -0.353035    0.000250
  18 C :   -0.083915    0.000135
  19 H :    0.147101   -0.000101
  20 H :    0.101823    0.000021
  21 H :    0.044552    0.000039
  22 H :    0.078542    0.000018
  23 H :    0.101944    0.000022
  24 H :    0.146893   -0.000103
  25 C :   -0.082111    0.000122
  26 H :    0.094427    0.000028
  27 H :    0.150497   -0.000088
  28 H :    0.067340    0.000005
  29 H :    0.050372    0.000044
  30 H :    0.123607   -0.000079
  31 H :    0.098440    0.000038
Sum of atomic charges         :   -2.0000000

LOEWDIN ATOMIC CHARGES AND SPIN POPULATIONS
-------------------------------------------
   0 V :   -0.242871    1.153331
   1 S :    0.090318   -0.016170
   2 S :    0.088167   -0.016332
   3 S :    0.087500   -0.016428
   4 S :    0.087879   -0.016327
   5 O :   -0.350752   -0.124395
   6 C :   -0.553439    0.010009
   7 C :   -0.552544    0.009945
   8 C :   -0.560115    0.009732
   9 C :   -0.546430    0.010223
  10 S :    0.336710   -0.001022
  11 S :    0.336853   -0.001047
  12 S :    0.346468   -0.001015
  13 S :    0.331557   -0.001086
  14 C :   -0.293558    0.000163
  15 C :   -0.297943    0.000184
  16 C :   -0.293859    0.000157
  17 C :   -0.309912    0.000171
  18 C :   -0.184866   -0.000036
  19 H :    0.065815   -0.000027
  20 H :    0.047411    0.000004
  21 H :    0.046797    0.000017
  22 H :    0.053414    0.000013
  23 H :    0.047226    0.000005
  24 H :    0.066087   -0.000027
  25 C :   -0.191859   -0.000038
  26 H :    0.053053    0.000005
  27 H :    0.069034   -0.000024
  28 H :    0.057420    0.000007
  29 H :    0.046180    0.000018
  30 H :    0.073558   -0.000028
  31 H :    0.046700    0.000016

  Mayer bond orders larger than 0.100000
B(  0-V ,  1-S ) :   0.7865 B(  0-V ,  2-S ) :   0.7909 B(  0-V ,  3-S ) :   0.7911
B(  0-V ,  4-S ) :   0.7886 B(  0-V ,  5-O ) :   2.1082 B(  1-S ,  8-C ) :   1.1341
B(  2-S ,  6-C ) :   1.1365 B(  3-S ,  9-C ) :   1.1396 B(  4-S ,  7-C ) :   1.1378
B(  6-C ,  7-C ) :   1.5177 B(  6-C , 10-S ) :   0.9540 B(  7-C , 11-S ) :   0.9532
B(  8-C ,  9-C ) :   1.5158 B(  8-C , 13-S ) :   0.9631 B(  9-C , 12-S ) :   0.9452
B( 10-S , 16-C ) :   1.0050 B( 11-S , 14-C ) :   1.0050 B( 12-S , 15-C ) :   1.0037
B( 13-S , 17-C ) :   1.0047 B( 14-C , 18-C ) :   0.8787 B( 14-C , 23-H ) :   0.9703
B( 14-C , 24-H ) :   0.9749 B( 15-C , 25-C ) :   0.8992 B( 15-C , 30-H ) :   0.9543
B( 15-C , 31-H ) :   0.9748 B( 16-C , 18-C ) :   0.8776 B( 16-C , 19-H ) :   0.9756
B( 16-C , 20-H ) :   0.9698 B( 17-C , 25-C ) :   0.8580 B( 17-C , 26-H ) :   0.9627
B( 17-C , 27-H ) :   0.9787 B( 18-C , 21-H ) :   0.9527 B( 18-C , 22-H ) :   0.9737
B( 25-C , 28-H ) :   0.9638 B( 25-C , 29-H ) :   0.9602

FINAL SINGLE POINT ENERGY     -4592.698772766874

DIPOLE MOMENT
-------------
                                X             Y             Z
Electronic contribution:      2.30877      26.60095      -1.29444
Nuclear contribution   :     -2.67123     -29.60248       1.37963
                        -----------------------------------------
Total Dipole Moment    :     -0.36246      -3.00153       0.08519
                        -----------------------------------------
Magnitude (a.u.)       :      3.02454
Magnitude (Debye)      :      7.68776

Rotational constants in cm-1:     0.012769     0.002548     0.002431
Rotational constants in MHz :   382.815427    76.397546    72.882198

                             ****ORCA TERMINATED NORMALLY****
TOTAL RUN TIME: 0 days 0 hours 27 minutes 39 seconds 818 msec
