                         Program Version 5.0.4 -  RELEASE  -
|  1> ! nofrozencore ReducedPop printbasis
|  2> ! B3LYP TZVP
|  3>
|  4> %basis
|  5> newgto V "CP(PPP)" end
|  6> end
|  7>
|  8> %pal
|  9> nprocs 4
| 10> end
| 11>
| 12> % sym SymThresh 1e-2 end
| 13> * xyz -2 2
| 14> V -0.7627760781716534 0.606452075750567 -0.5424310725796418
| 15> S -1.9672605057093244 -0.6844410411006091 1.2255448946796716
| 16> S 0.1128181015356358 1.9310393868697453 1.2659969683951118
| 17> S -0.5917041856251233 -1.5592042629282372 -1.6084642475399082
| 18> S 1.4354009022913343 1.1064005835869946 -1.6021486924004842
| 19> O -1.8677190048471768 1.4575663567048947 -1.319250640712633
| 20> C 1.4045187819208556 2.89579484681001 0.7054230255393908
| 21> C 1.9815791322627785 2.4291022038651118 -0.44474105753500376
| 22> C -2.2103036817637203 -2.2478221031275254 0.28185713483800545
| 23> C -1.757379673793991 -2.6195470268260785 -0.9558543166525838
| 24> S 2.01277266384941 4.267563981612867 1.8961553406203515
| 25> S 3.3269198618679794 3.306492200066717 -0.992885254600604
| 26> S -2.017973990954735 -4.267127970606881 -1.9031922606672234
| 27> S -3.313749771707055 -3.3185781426570538 1.0019131599421673
| 28> C 4.78060720556723 2.9156477042113704 0.07873055792793286
| 29> C -1.2644020645499299 -5.402473157616793 -0.6257734431484822
| 30> C 3.6661215741492583 3.515521763561063 2.3330130904291737
| 31> C -2.3934116274228785 -4.794509387697816 1.6197436042551527
| 32> C 4.841487918260375 3.7217947770053503 1.370123240597179
| 33> H 3.470747220244312 2.4426005200920637 2.4670330735554318
| 34> H 3.928180519194185 3.935665613529224 3.319191919718705
| 35> H 5.759216738991455 3.4409257272156633 1.912206052542716
| 36> H 4.928921107375179 4.786059007612069 1.1257010385301331
| 37> H 5.649511320774185 3.175792798795961 -0.5554624778371986
| 38> H 4.812769226957482 1.8311923917340966 0.276762130314536
| 39> C -2.132567665642478 -5.852285201771938 0.5553069345788705
| 40> H -3.0610658538829156 -5.214170488795484 2.3954227127075733
| 41> H -1.4604434862153257 -4.470634132557188 2.109381374130308
| 42> H -3.091074843027598 -6.226291411027728 0.1792926896341825
| 43> H -1.6197530712382366 -6.704773250306506 1.029756584887245
| 44> H -0.37162021535671946 -4.874735899563792 -0.26015481592353995
| 45> H -0.9242866690127737 -6.292699149406683 -1.1843505137701742
| 46> *
| 47>
| 48> % eprnmr
| 49> gtensor true
| 50> Nuclei = all H {aiso,adip,aorb,fgrad,rho}
| 51> Nuclei = all V {aiso,adip,aorb,fgrad,rho}
| 52> end
| 53>
| 54>                          ****END OF INPUT****

CARTESIAN COORDINATES (ANGSTROEM)
---------------------------------
  V     -0.763544    0.607158   -0.542996
  S     -1.968028   -0.683735    1.224979
  S      0.112050    1.931746    1.265432
  S     -0.592472   -1.558498   -1.609030
  S      1.434633    1.107107   -1.602714
  O     -1.868487    1.458273   -1.319816
  C      1.403751    2.896501    0.704858
  C      1.980811    2.429808   -0.445306
  C     -2.211072   -2.247116    0.281292
  C     -1.758148   -2.618841   -0.956420
  S      2.012005    4.268270    1.895590
  S      3.326152    3.307198   -0.993451
  S     -2.018742   -4.266422   -1.903758
  S     -3.314518   -3.317872    1.001348
  C      4.779839    2.916354    0.078165
  C     -1.265170   -5.401767   -0.626339
  C      3.665354    3.516228    2.332448
  C     -2.394180   -4.793803    1.619178
  C      4.840720    3.722501    1.369558
  H      3.469979    2.443307    2.466468
  H      3.927413    3.936372    3.318626
  H      5.758449    3.441632    1.911641
  H      4.928153    4.786765    1.125136
  H      5.648743    3.176499   -0.556028
  H      4.812001    1.831899    0.276197
  C     -2.133336   -5.851579    0.554742
  H     -3.061834   -5.213464    2.394857
  H     -1.461211   -4.469928    2.108816
  H     -3.091843   -6.225585    0.178727
  H     -1.620521   -6.704067    1.029191
  H     -0.372388   -4.874030   -0.260720
  H     -0.925055   -6.291993   -1.184916

 Total Charge           Charge          ....   -2
 Multiplicity           Mult            ....    2
 Number of Electrons    NEL             ....  233
 Basis Dimension        Dim             ....  517

ORBITAL ENERGIES
----------------
                 SPIN UP ORBITALS
  NO   OCC          E(Eh)            E(eV)
   0   1.0000    -196.642199     -5350.9063
   1   1.0000     -88.692014     -2413.4324
   2   1.0000     -88.691585     -2413.4207
   3   1.0000     -88.660808     -2412.5832
   4   1.0000     -88.660055     -2412.5628
   5   1.0000     -88.618789     -2411.4398
   6   1.0000     -88.618157     -2411.4226
   7   1.0000     -88.608145     -2411.1502
   8   1.0000     -88.607475     -2411.1320
   9   1.0000     -22.017785      -599.1344
  10   1.0000     -18.859208      -513.1852
  11   1.0000     -18.524628      -504.0808
  12   1.0000     -18.518890      -503.9246
  13   1.0000     -18.518740      -503.9205
  14   1.0000     -10.022371      -272.7226
  15   1.0000     -10.021896      -272.7097
  16   1.0000     -10.012464      -272.4530
  17   1.0000     -10.011578      -272.4289
  18   1.0000     -10.005027      -272.2506
  19   1.0000     -10.004299      -272.2308
  20   1.0000     -10.000386      -272.1243
  21   1.0000     -10.000017      -272.1143
  22   1.0000      -9.986653      -271.7506
  23   1.0000      -9.985997      -271.7328
  24   1.0000      -7.743317      -210.7064
  25   1.0000      -7.742886      -210.6946
  26   1.0000      -7.717100      -209.9930
  27   1.0000      -7.716385      -209.9735
  28   1.0000      -7.671227      -208.7447
  29   1.0000      -7.670548      -208.7262
  30   1.0000      -7.664805      -208.5699
  31   1.0000      -7.664110      -208.5510
  32   1.0000      -5.708558      -155.3378
  33   1.0000      -5.708114      -155.3257
  34   1.0000      -5.705278      -155.2485
  35   1.0000      -5.704870      -155.2374
  36   1.0000      -5.697911      -155.0480
  37   1.0000      -5.697471      -155.0361
  38   1.0000      -5.682325      -154.6239
  39   1.0000      -5.681606      -154.6044
  40   1.0000      -5.677866      -154.5026
  41   1.0000      -5.677155      -154.4832
  42   1.0000      -5.671903      -154.3403
  43   1.0000      -5.671181      -154.3207
  44   1.0000      -5.636689      -153.3821
  45   1.0000      -5.636022      -153.3640
  46   1.0000      -5.629755      -153.1934
  47   1.0000      -5.629107      -153.1758
  48   1.0000      -5.629103      -153.1757
  49   1.0000      -5.628878      -153.1696
  50   1.0000      -5.628402      -153.1566
  51   1.0000      -5.628157      -153.1499
  52   1.0000      -5.623410      -153.0208
  53   1.0000      -5.622744      -153.0026
  54   1.0000      -5.622693      -153.0013
  55   1.0000      -5.622070      -152.9843
  56   1.0000      -2.411647       -65.6243
  57   1.0000      -1.453044       -39.5393
  58   1.0000      -1.441515       -39.2256
  59   1.0000      -1.440292       -39.1923
  60   1.0000      -0.643679       -17.5154
  61   1.0000      -0.643219       -17.5029
  62   1.0000      -0.620058       -16.8726
  63   1.0000      -0.598959       -16.2985
  64   1.0000      -0.597945       -16.2709
  65   1.0000      -0.572481       -15.5780
  66   1.0000      -0.572097       -15.5676
  67   1.0000      -0.500590       -13.6217
  68   1.0000      -0.499611       -13.5951
  69   1.0000      -0.479818       -13.0565
  70   1.0000      -0.478942       -13.0327
  71   1.0000      -0.423481       -11.5235
  72   1.0000      -0.422440       -11.4952
  73   1.0000      -0.408326       -11.1111
  74   1.0000      -0.404953       -11.0193
  75   1.0000      -0.370871       -10.0919
  76   1.0000      -0.367947       -10.0124
  77   1.0000      -0.290821        -7.9136
  78   1.0000      -0.289917        -7.8890
  79   1.0000      -0.279971        -7.6184
  80   1.0000      -0.279367        -7.6020
  81   1.0000      -0.256677        -6.9845
  82   1.0000      -0.252145        -6.8612
  83   1.0000      -0.240553        -6.5458
  84   1.0000      -0.238229        -6.4825
  85   1.0000      -0.196572        -5.3490
  86   1.0000      -0.194548        -5.2939
  87   1.0000      -0.188709        -5.1350
  88   1.0000      -0.188017        -5.1162
  89   1.0000      -0.183877        -5.0036
  90   1.0000      -0.183100        -4.9824
  91   1.0000      -0.181572        -4.9408
  92   1.0000      -0.154296        -4.1986
  93   1.0000      -0.147806        -4.0220
  94   1.0000      -0.146106        -3.9757
  95   1.0000      -0.142644        -3.8815
  96   1.0000      -0.141959        -3.8629
  97   1.0000      -0.101568        -2.7638
  98   1.0000      -0.099055        -2.6954
  99   1.0000      -0.091345        -2.4856
 100   1.0000      -0.088457        -2.4070
 101   1.0000      -0.081393        -2.2148
 102   1.0000      -0.076077        -2.0702
 103   1.0000      -0.067366        -1.8331
 104   1.0000      -0.045739        -1.2446
 105   1.0000      -0.042774        -1.1639
 106   1.0000      -0.041089        -1.1181
 107   1.0000      -0.031109        -0.8465
 108   1.0000      -0.030078        -0.8185
 109   1.0000      -0.013207        -0.3594
 110   1.0000      -0.002300        -0.0626
 111   1.0000      -0.001867        -0.0508
 112   1.0000       0.003628         0.0987
 113   1.0000       0.013458         0.3662
 114   1.0000       0.018295         0.4978
 115   1.0000       0.034369         0.9352
 116   1.0000       0.059280         1.6131
 117   0.0000       0.184958         5.0330
 118   0.0000       0.186257         5.0683
 119   0.0000       0.191275         5.2049
 120   0.0000       0.195429         5.3179
 121   0.0000       0.202446         5.5088

                 SPIN DOWN ORBITALS
  NO   OCC          E(Eh)            E(eV)
   0   1.0000    -196.642341     -5350.9101
   1   1.0000     -88.692035     -2413.4330
   2   1.0000     -88.691607     -2413.4213
   3   1.0000     -88.660813     -2412.5834
   4   1.0000     -88.660061     -2412.5629
   5   1.0000     -88.618970     -2411.4448
   6   1.0000     -88.618338     -2411.4276
   7   1.0000     -88.608279     -2411.1539
   8   1.0000     -88.607610     -2411.1356
   9   1.0000     -22.003048      -598.7334
  10   1.0000     -18.862823      -513.2835
  11   1.0000     -18.519464      -503.9402
  12   1.0000     -18.503240      -503.4988
  13   1.0000     -18.502625      -503.4820
  14   1.0000     -10.022369      -272.7225
  15   1.0000     -10.021894      -272.7096
  16   1.0000     -10.012454      -272.4527
  17   1.0000     -10.011567      -272.4286
  18   1.0000     -10.005026      -272.2506
  19   1.0000     -10.004297      -272.2308
  20   1.0000     -10.000124      -272.1172
  21   1.0000      -9.999771      -272.1076
  22   1.0000      -9.986407      -271.7439
  23   1.0000      -9.985757      -271.7263
  24   1.0000      -7.743339      -210.7070
  25   1.0000      -7.742909      -210.6953
  26   1.0000      -7.717105      -209.9931
  27   1.0000      -7.716391      -209.9737
  28   1.0000      -7.671397      -208.7493
  29   1.0000      -7.670719      -208.7309
  30   1.0000      -7.664928      -208.5733
  31   1.0000      -7.664234      -208.5544
  32   1.0000      -5.708591      -155.3387
  33   1.0000      -5.708148      -155.3266
  34   1.0000      -5.705307      -155.2493
  35   1.0000      -5.704900      -155.2382
  36   1.0000      -5.697938      -155.0488
  37   1.0000      -5.697499      -155.0368
  38   1.0000      -5.682333      -154.6241
  39   1.0000      -5.681615      -154.6046
  40   1.0000      -5.677878      -154.5029
  41   1.0000      -5.677167      -154.4836
  42   1.0000      -5.671901      -154.3403
  43   1.0000      -5.671181      -154.3207
  44   1.0000      -5.636866      -153.3869
  45   1.0000      -5.636198      -153.3688
  46   1.0000      -5.630212      -153.2058
  47   1.0000      -5.629565      -153.1882
  48   1.0000      -5.629270      -153.1802
  49   1.0000      -5.629029      -153.1737
  50   1.0000      -5.628562      -153.1610
  51   1.0000      -5.628307      -153.1540
  52   1.0000      -5.623678      -153.0281
  53   1.0000      -5.622968      -153.0087
  54   1.0000      -5.622905      -153.0070
  55   1.0000      -5.622226      -152.9885
  56   1.0000      -2.367287       -64.4172
  57   1.0000      -1.434101       -39.0239
  58   1.0000      -1.379969       -37.5509
  59   1.0000      -1.379027       -37.5252
  60   1.0000      -0.643609       -17.5135
  61   1.0000      -0.643154       -17.5011
  62   1.0000      -0.627803       -17.0834
  63   1.0000      -0.598784       -16.2937
  64   1.0000      -0.597770       -16.2662
  65   1.0000      -0.572460       -15.5774
  66   1.0000      -0.572083       -15.5672
  67   1.0000      -0.500580       -13.6215
  68   1.0000      -0.499610       -13.5951
  69   1.0000      -0.479853       -13.0575
  70   1.0000      -0.478987       -13.0339
  71   1.0000      -0.423836       -11.5332
  72   1.0000      -0.422822       -11.5056
  73   1.0000      -0.408319       -11.1109
  74   1.0000      -0.405008       -11.0208
  75   1.0000      -0.370783       -10.0895
  76   1.0000      -0.367924       -10.0117
  77   1.0000      -0.290798        -7.9130
  78   1.0000      -0.289900        -7.8886
  79   1.0000      -0.279933        -7.6174
  80   1.0000      -0.279340        -7.6012
  81   1.0000      -0.256469        -6.9789
  82   1.0000      -0.252085        -6.8596
  83   1.0000      -0.240466        -6.5434
  84   1.0000      -0.238143        -6.4802
  85   1.0000      -0.196256        -5.3404
  86   1.0000      -0.194507        -5.2928
  87   1.0000      -0.188555        -5.1308
  88   1.0000      -0.187885        -5.1126
  89   1.0000      -0.183819        -5.0020
  90   1.0000      -0.183035        -4.9806
  91   1.0000      -0.179568        -4.8863
  92   1.0000      -0.153925        -4.1885
  93   1.0000      -0.147201        -4.0055
  94   1.0000      -0.145898        -3.9701
  95   1.0000      -0.142413        -3.8752
  96   1.0000      -0.141804        -3.8587
  97   1.0000      -0.101207        -2.7540
  98   1.0000      -0.097399        -2.6504
  99   1.0000      -0.090966        -2.4753
 100   1.0000      -0.088768        -2.4155
 101   1.0000      -0.083339        -2.2678
 102   1.0000      -0.076148        -2.0721
 103   1.0000      -0.068666        -1.8685
 104   1.0000      -0.042716        -1.1624
 105   1.0000      -0.041332        -1.1247
 106   1.0000      -0.040670        -1.1067
 107   1.0000      -0.030027        -0.8171
 108   1.0000      -0.029446        -0.8013
 109   1.0000      -0.012759        -0.3472
 110   1.0000      -0.002711        -0.0738
 111   1.0000      -0.001100        -0.0299
 112   1.0000       0.007255         0.1974
 113   1.0000       0.014266         0.3882
 114   1.0000       0.034597         0.9414
 115   1.0000       0.058534         1.5928
 116   0.0000       0.183346         4.9891
 117   0.0000       0.185791         5.0556
 118   0.0000       0.188845         5.1387
 119   0.0000       0.193138         5.2556
 120   0.0000       0.195881         5.3302

MULLIKEN ATOMIC CHARGES AND SPIN POPULATIONS
--------------------------------------------
   0 V :    0.447748    1.200867
   1 S :   -0.273434   -0.029078
   2 S :   -0.227381   -0.019402
   3 S :   -0.230449   -0.019496
   4 S :   -0.270947   -0.028920
   5 O :   -0.504105   -0.139936
   6 C :   -0.090065    0.007602
   7 C :   -0.146880    0.010368
   8 C :   -0.145533    0.010132
   9 C :   -0.090423    0.007132
  10 S :   -0.046055   -0.001650
  11 S :   -0.043673    0.001240
  12 S :   -0.046754   -0.001780
  13 S :   -0.044158    0.001144
  14 C :   -0.303428    0.000708
  15 C :   -0.365726    0.000039
  16 C :   -0.364218    0.000003
  17 C :   -0.303172    0.000703
  18 C :   -0.083458    0.000310
  19 H :    0.162167   -0.000129
  20 H :    0.101221   -0.000008
  21 H :    0.045742    0.000066
  22 H :    0.078768    0.000012
  23 H :    0.091633    0.000026
  24 H :    0.128148   -0.000099
  25 C :   -0.082715    0.000306
  26 H :    0.091298    0.000033
  27 H :    0.128291   -0.000105
  28 H :    0.078758    0.000003
  29 H :    0.045032    0.000053
  30 H :    0.163046   -0.000138
  31 H :    0.100720   -0.000006
Sum of atomic charges         :   -2.0000000

LOEWDIN ATOMIC CHARGES AND SPIN POPULATIONS
-------------------------------------------
   0 V :   -0.236931    1.154630
   1 S :    0.047635   -0.020914
   2 S :    0.129614   -0.011940
   3 S :    0.125564   -0.012227
   4 S :    0.051163   -0.020645
   5 O :   -0.348266   -0.125442
   6 C :   -0.523349    0.010360
   7 C :   -0.583998    0.009788
   8 C :   -0.583989    0.009531
   9 C :   -0.522411    0.009773
  10 S :    0.299523   -0.002303
  11 S :    0.369223    0.000370
  12 S :    0.298001   -0.002394
  13 S :    0.369098    0.000294
  14 C :   -0.299762    0.000481
  15 C :   -0.290325    0.000090
  16 C :   -0.290146    0.000088
  17 C :   -0.299936    0.000475
  18 C :   -0.186037    0.000027
  19 H :    0.071790   -0.000068
  20 H :    0.048168   -0.000017
  21 H :    0.046949    0.000041
  22 H :    0.053609    0.000012
  23 H :    0.049083    0.000002
  24 H :    0.061458    0.000005
  25 C :   -0.186382    0.000020
  26 H :    0.048749    0.000004
  27 H :    0.061416    0.000002
  28 H :    0.053615    0.000009
  29 H :    0.046608    0.000037
  30 H :    0.072229   -0.000072
  31 H :    0.048037   -0.000016

  Mayer bond orders larger than 0.100000
B(  0-V ,  1-S ) :   0.7656 B(  0-V ,  2-S ) :   0.8092 B(  0-V ,  3-S ) :   0.8003
B(  0-V ,  4-S ) :   0.7696 B(  0-V ,  5-O ) :   2.1100 B(  1-S ,  8-C ) :   1.1032
B(  2-S ,  6-C ) :   1.1487 B(  3-S ,  9-C ) :   1.1521 B(  4-S ,  7-C ) :   1.1041
B(  6-C ,  7-C ) :   1.5082 B(  6-C , 10-S ) :   0.9215 B(  7-C , 11-S ) :   1.0130
B(  8-C ,  9-C ) :   1.5087 B(  8-C , 13-S ) :   1.0093 B(  9-C , 12-S ) :   0.9195
B( 10-S , 16-C ) :   1.0270 B( 11-S , 14-C ) :   0.9625 B( 12-S , 15-C ) :   1.0272
B( 13-S , 17-C ) :   0.9627 B( 14-C , 18-C ) :   0.8885 B( 14-C , 23-H ) :   0.9734
B( 14-C , 24-H ) :   0.9693 B( 15-C , 25-C ) :   0.8676 B( 15-C , 30-H ) :   0.9773
B( 15-C , 31-H ) :   0.9677 B( 16-C , 18-C ) :   0.8685 B( 16-C , 19-H ) :   0.9770
B( 16-C , 20-H ) :   0.9679 B( 17-C , 25-C ) :   0.8889 B( 17-C , 26-H ) :   0.9733
B( 17-C , 27-H ) :   0.9693 B( 18-C , 21-H ) :   0.9542 B( 18-C , 22-H ) :   0.9737
B( 25-C , 28-H ) :   0.9737 B( 25-C , 29-H ) :   0.9539

FINAL SINGLE POINT ENERGY     -4592.667506588663

DIPOLE MOMENT
-------------
                                X             Y             Z
Electronic contribution:    -18.34017      14.49922     -13.05805
Nuclear contribution   :     20.43018     -16.09547      14.52810
                        -----------------------------------------
Total Dipole Moment    :      2.09001      -1.59625       1.47004
                        -----------------------------------------
Magnitude (a.u.)       :      3.01284
Magnitude (Debye)      :      7.65803

Rotational constants in cm-1:     0.012712     0.002546     0.002428
Rotational constants in MHz :   381.107858    76.333265    72.785527

                             ****ORCA TERMINATED NORMALLY****
TOTAL RUN TIME: 0 days 0 hours 43 minutes 3 seconds 395 msec
