                         Program Version 5.0.4 -  RELEASE  -
|  1> ! nofrozencore ReducedPop printbasis
|  2> ! B3LYP TZVP
|  3>
|  4> %basis
|  5> newgto V "CP(PPP)" end
|  6> end
|  7>
|  8> %pal
|  9> nprocs 8
| 10> end
| 11>
| 12> % sym SymThresh 1e-2 end
| 13> * xyz -2 2
| 14> V 0.8515770733533822 -0.17116624911544875 0.6997855472354629
| 15> S 0.6990569428790144 2.232365494382601 0.3395164852383081
| 16> S -1.1626301335328804 0.04169070511167974 2.0496173746593795
| 17> S 1.7167823564063727 -0.17625753160191174 -1.6082059676208715
| 18> S -0.11294931194441363 -2.364470688955337 0.11564873570583337
| 19> O 2.081374373000574 -0.4314567989105681 1.6843255548602567
| 20> C -1.9603226863761416 -1.5366105040270228 2.0044573000058756
| 21> C -1.231889070695698 -2.6434279308867183 1.492050827295589
| 22> C 1.5021681542897727 2.554260307160674 -1.2034801739356231
| 23> C 2.2987254746950874 1.5169727738792018 -1.771868141789926
| 24> S -3.123670534519356 -1.8237334067349296 3.3791564498347166
| 25> S -2.0531523119812807 -4.256596790211819 1.4106474726051734
| 26> S 3.096334040417797 1.8270300816450844 -3.3698593916025565
| 27> S 2.0642787173739205 4.279507981465387 -1.4042594673311397
| 28> C -3.7896980946184984 -4.054506325405706 0.778471679543352
| 29> C 1.9215701351866041 2.6990737422068967 -4.516606115048023
| 30> C -4.590876937100177 -2.144100128908402 2.3249251234159507
| 31> C 1.1260607869612937 4.595277999244677 -2.948307476521564
| 32> C -4.798762872730509 -3.572585338923455 1.8181729151234265
| 33> H -4.471778721654387 -1.464498017122041 1.4748014621018168
| 34> H -5.480661042941114 -1.8205453101935911 2.8821265980911974
| 35> H -5.805617334846417 -3.6197781708703913 1.371271170508223
| 36> H -4.791753743953267 -4.269530993844726 2.663451903224482
| 37> H -4.040505824290819 -5.0833202865508955 0.4832965653986113
| 38> H -3.7856082939651703 -3.42957880179174 -0.1220066485763942
| 39> C 1.7847443198588449 4.1996944943150405 -4.271177936667298
| 40> H 0.8690815338926391 5.663479039955246 -2.9733623059987875
| 41> H 0.19244014013672092 4.037529899551569 -2.8190757011116707
| 42> H 2.7776292412590258 4.657606877020589 -4.341173834776296
| 43> H 1.1749486796888673 4.629479894012926 -5.083034371156313
| 44> H 0.9539243928894776 2.183453836588335 -4.521745044425671
| 45> H 2.404289886579815 2.5369179447765116 -5.491344828640333
| 46> *
| 47>
| 48> % eprnmr
| 49> gtensor true
| 50> Nuclei = all H {aiso,adip,aorb,fgrad,rho}
| 51> Nuclei = all V {aiso,adip,aorb,fgrad,rho}
| 52> end
| 53>
| 54>                          ****END OF INPUT****

CARTESIAN COORDINATES (ANGSTROEM)
---------------------------------
  V      0.852437   -0.171404    0.700568
  S      0.699917    2.232128    0.340299
  S     -1.161770    0.041453    2.050400
  S      1.717642   -0.176495   -1.607424
  S     -0.112089   -2.364709    0.116431
  O      2.082234   -0.431695    1.685108
  C     -1.959463   -1.536848    2.005240
  C     -1.231029   -2.643666    1.492833
  C      1.503028    2.554022   -1.202698
  C      2.299586    1.516735   -1.771086
  S     -3.122811   -1.823971    3.379939
  S     -2.052292   -4.256835    1.411430
  S      3.097194    1.826792   -3.369077
  S      2.065139    4.279270   -1.403477
  C     -3.788838   -4.054744    0.779254
  C      1.922430    2.698836   -4.515824
  C     -4.590017   -2.144338    2.325707
  C      1.126921    4.595040   -2.947525
  C     -4.797903   -3.572823    1.818955
  H     -4.470919   -1.464736    1.475584
  H     -5.479801   -1.820783    2.882909
  H     -5.804757   -3.620016    1.372054
  H     -4.790894   -4.269769    2.664234
  H     -4.039646   -5.083558    0.484079
  H     -3.784748   -3.429817   -0.121224
  C      1.785604    4.199457   -4.270396
  H      0.869942    5.663241   -2.972580
  H      0.193300    4.037292   -2.818293
  H      2.778489    4.657369   -4.340391
  H      1.175809    4.629242   -5.082252
  H      0.954784    2.183216   -4.520963
  H      2.405150    2.536680   -5.490562

 Total Charge           Charge          ....   -2
 Multiplicity           Mult            ....    2
 Number of Electrons    NEL             ....  233
 Basis Dimension        Dim             ....  517

ORBITAL ENERGIES
----------------
                 SPIN UP ORBITALS
  NO   OCC          E(Eh)            E(eV)
   0   1.0000    -196.642316     -5350.9095
   1   1.0000     -88.677743     -2413.0441
   2   1.0000     -88.677574     -2413.0395
   3   1.0000     -88.672777     -2412.9089
   4   1.0000     -88.672309     -2412.8962
   5   1.0000     -88.616636     -2411.3813
   6   1.0000     -88.616426     -2411.3755
   7   1.0000     -88.615903     -2411.3613
   8   1.0000     -88.615859     -2411.3601
   9   1.0000     -22.018050      -599.1416
  10   1.0000     -18.860404      -513.2177
  11   1.0000     -18.524978      -504.0903
  12   1.0000     -18.519052      -503.9290
  13   1.0000     -18.519010      -503.9279
  14   1.0000     -10.017548      -272.5913
  15   1.0000     -10.017393      -272.5871
  16   1.0000     -10.012687      -272.4591
  17   1.0000     -10.012442      -272.4524
  18   1.0000     -10.003931      -272.2208
  19   1.0000     -10.003697      -272.2144
  20   1.0000     -10.001565      -272.1564
  21   1.0000     -10.000837      -272.1366
  22   1.0000     -10.000325      -272.1227
  23   1.0000      -9.999963      -272.1128
  24   1.0000      -7.731279      -210.3788
  25   1.0000      -7.731123      -210.3745
  26   1.0000      -7.726312      -210.2436
  27   1.0000      -7.725863      -210.2314
  28   1.0000      -7.671242      -208.7451
  29   1.0000      -7.671012      -208.7388
  30   1.0000      -7.669684      -208.7027
  31   1.0000      -7.669648      -208.7017
  32   1.0000      -5.696216      -155.0019
  33   1.0000      -5.696042      -154.9972
  34   1.0000      -5.693021      -154.9150
  35   1.0000      -5.692883      -154.9112
  36   1.0000      -5.691773      -154.8810
  37   1.0000      -5.691330      -154.8690
  38   1.0000      -5.687344      -154.7605
  39   1.0000      -5.686882      -154.7479
  40   1.0000      -5.685967      -154.7230
  41   1.0000      -5.685805      -154.7186
  42   1.0000      -5.681155      -154.5921
  43   1.0000      -5.680704      -154.5798
  44   1.0000      -5.635995      -153.3632
  45   1.0000      -5.635767      -153.3570
  46   1.0000      -5.634617      -153.3257
  47   1.0000      -5.634583      -153.3248
  48   1.0000      -5.629603      -153.1893
  49   1.0000      -5.629369      -153.1829
  50   1.0000      -5.629361      -153.1827
  51   1.0000      -5.629151      -153.1770
  52   1.0000      -5.628255      -153.1526
  53   1.0000      -5.628204      -153.1512
  54   1.0000      -5.627552      -153.1335
  55   1.0000      -5.627535      -153.1330
  56   1.0000      -2.411883       -65.6307
  57   1.0000      -1.453460       -39.5506
  58   1.0000      -1.441584       -39.2275
  59   1.0000      -1.440552       -39.1994
  60   1.0000      -0.641793       -17.4641
  61   1.0000      -0.641516       -17.4565
  62   1.0000      -0.621245       -16.9049
  63   1.0000      -0.589401       -16.0384
  64   1.0000      -0.588631       -16.0175
  65   1.0000      -0.573811       -15.6142
  66   1.0000      -0.573584       -15.6080
  67   1.0000      -0.490164       -13.3381
  68   1.0000      -0.488108       -13.2821
  69   1.0000      -0.485760       -13.2182
  70   1.0000      -0.484327       -13.1792
  71   1.0000      -0.422224       -11.4893
  72   1.0000      -0.419305       -11.4099
  73   1.0000      -0.408367       -11.1122
  74   1.0000      -0.403607       -10.9827
  75   1.0000      -0.369181       -10.0459
  76   1.0000      -0.364952        -9.9308
  77   1.0000      -0.289466        -7.8768
  78   1.0000      -0.288862        -7.8603
  79   1.0000      -0.276691        -7.5291
  80   1.0000      -0.276308        -7.5187
  81   1.0000      -0.260904        -7.0995
  82   1.0000      -0.255893        -6.9632
  83   1.0000      -0.241282        -6.5656
  84   1.0000      -0.238588        -6.4923
  85   1.0000      -0.193211        -5.2575
  86   1.0000      -0.191864        -5.2209
  87   1.0000      -0.190849        -5.1933
  88   1.0000      -0.188763        -5.1365
  89   1.0000      -0.181748        -4.9456
  90   1.0000      -0.180359        -4.9078
  91   1.0000      -0.177153        -4.8206
  92   1.0000      -0.150636        -4.0990
  93   1.0000      -0.148899        -4.0517
  94   1.0000      -0.146268        -3.9802
  95   1.0000      -0.136840        -3.7236
  96   1.0000      -0.131625        -3.5817
  97   1.0000      -0.103194        -2.8081
  98   1.0000      -0.095857        -2.6084
  99   1.0000      -0.095497        -2.5986
 100   1.0000      -0.083421        -2.2700
 101   1.0000      -0.079142        -2.1536
 102   1.0000      -0.078717        -2.1420
 103   1.0000      -0.068136        -1.8541
 104   1.0000      -0.050809        -1.3826
 105   1.0000      -0.041019        -1.1162
 106   1.0000      -0.035538        -0.9670
 107   1.0000      -0.033804        -0.9199
 108   1.0000      -0.031421        -0.8550
 109   1.0000      -0.015091        -0.4107
 110   1.0000      -0.007778        -0.2116
 111   1.0000      -0.001367        -0.0372
 112   1.0000       0.004854         0.1321
 113   1.0000       0.008567         0.2331
 114   1.0000       0.018067         0.4916
 115   1.0000       0.031291         0.8515
 116   1.0000       0.056511         1.5377
 117   0.0000       0.164092         4.4652
 118   0.0000       0.171835         4.6759
 119   0.0000       0.197483         5.3738
 120   0.0000       0.197714         5.3801
 121   0.0000       0.208800         5.6817

                 SPIN DOWN ORBITALS
  NO   OCC          E(Eh)            E(eV)
   0   1.0000    -196.642456     -5350.9133
   1   1.0000     -88.677757     -2413.0445
   2   1.0000     -88.677589     -2413.0399
   3   1.0000     -88.672790     -2412.9093
   4   1.0000     -88.672322     -2412.8966
   5   1.0000     -88.616784     -2411.3853
   6   1.0000     -88.616573     -2411.3795
   7   1.0000     -88.616065     -2411.3657
   8   1.0000     -88.616023     -2411.3646
   9   1.0000     -22.003389      -598.7426
  10   1.0000     -18.863971      -513.3147
  11   1.0000     -18.519857      -503.9509
  12   1.0000     -18.503568      -503.5077
  13   1.0000     -18.502876      -503.4888
  14   1.0000     -10.017545      -272.5913
  15   1.0000     -10.017390      -272.5870
  16   1.0000     -10.012683      -272.4590
  17   1.0000     -10.012438      -272.4523
  18   1.0000     -10.003930      -272.2208
  19   1.0000     -10.003697      -272.2144
  20   1.0000     -10.001304      -272.1493
  21   1.0000     -10.000574      -272.1295
  22   1.0000     -10.000086      -272.1162
  23   1.0000      -9.999727      -272.1064
  24   1.0000      -7.731294      -210.3792
  25   1.0000      -7.731138      -210.3750
  26   1.0000      -7.726326      -210.2440
  27   1.0000      -7.725876      -210.2318
  28   1.0000      -7.671380      -208.7489
  29   1.0000      -7.671149      -208.7426
  30   1.0000      -7.669835      -208.7068
  31   1.0000      -7.669802      -208.7059
  32   1.0000      -5.696237      -155.0025
  33   1.0000      -5.696063      -154.9978
  34   1.0000      -5.693044      -154.9156
  35   1.0000      -5.692906      -154.9119
  36   1.0000      -5.691788      -154.8814
  37   1.0000      -5.691344      -154.8693
  38   1.0000      -5.687363      -154.7610
  39   1.0000      -5.686901      -154.7485
  40   1.0000      -5.685982      -154.7234
  41   1.0000      -5.685820      -154.7190
  42   1.0000      -5.681173      -154.5926
  43   1.0000      -5.680722      -154.5803
  44   1.0000      -5.636162      -153.3678
  45   1.0000      -5.635934      -153.3616
  46   1.0000      -5.634783      -153.3302
  47   1.0000      -5.634750      -153.3294
  48   1.0000      -5.629936      -153.1983
  49   1.0000      -5.629708      -153.1921
  50   1.0000      -5.629505      -153.1866
  51   1.0000      -5.629285      -153.1806
  52   1.0000      -5.628687      -153.1644
  53   1.0000      -5.628635      -153.1629
  54   1.0000      -5.627662      -153.1365
  55   1.0000      -5.627654      -153.1363
  56   1.0000      -2.367752       -64.4298
  57   1.0000      -1.434678       -39.0396
  58   1.0000      -1.380316       -37.5603
  59   1.0000      -1.379561       -37.5398
  60   1.0000      -0.641750       -17.4629
  61   1.0000      -0.641472       -17.4553
  62   1.0000      -0.628885       -17.1128
  63   1.0000      -0.589202       -16.0330
  64   1.0000      -0.588420       -16.0117
  65   1.0000      -0.573801       -15.6139
  66   1.0000      -0.573572       -15.6077
  67   1.0000      -0.490176       -13.3384
  68   1.0000      -0.488136       -13.2828
  69   1.0000      -0.485773       -13.2185
  70   1.0000      -0.484354       -13.1799
  71   1.0000      -0.422460       -11.4957
  72   1.0000      -0.419604       -11.4180
  73   1.0000      -0.408366       -11.1122
  74   1.0000      -0.403688       -10.9849
  75   1.0000      -0.369112       -10.0440
  76   1.0000      -0.364976        -9.9315
  77   1.0000      -0.289439        -7.8760
  78   1.0000      -0.288849        -7.8600
  79   1.0000      -0.276661        -7.5283
  80   1.0000      -0.276290        -7.5182
  81   1.0000      -0.260679        -7.0934
  82   1.0000      -0.255838        -6.9617
  83   1.0000      -0.241177        -6.5628
  84   1.0000      -0.238504        -6.4900
  85   1.0000      -0.193011        -5.2521
  86   1.0000      -0.191835        -5.2201
  87   1.0000      -0.190649        -5.1878
  88   1.0000      -0.188728        -5.1356
  89   1.0000      -0.181481        -4.9383
  90   1.0000      -0.180258        -4.9051
  91   1.0000      -0.175139        -4.7658
  92   1.0000      -0.150390        -4.0923
  93   1.0000      -0.148330        -4.0363
  94   1.0000      -0.146033        -3.9738
  95   1.0000      -0.136391        -3.7114
  96   1.0000      -0.131464        -3.5773
  97   1.0000      -0.101895        -2.7727
  98   1.0000      -0.095845        -2.6081
  99   1.0000      -0.095078        -2.5872
 100   1.0000      -0.085065        -2.3147
 101   1.0000      -0.079683        -2.1683
 102   1.0000      -0.078735        -2.1425
 103   1.0000      -0.068558        -1.8656
 104   1.0000      -0.047503        -1.2926
 105   1.0000      -0.041028        -1.1164
 106   1.0000      -0.034697        -0.9442
 107   1.0000      -0.033122        -0.9013
 108   1.0000      -0.030175        -0.8211
 109   1.0000      -0.014163        -0.3854
 110   1.0000      -0.006839        -0.1861
 111   1.0000      -0.000114        -0.0031
 112   1.0000       0.005455         0.1485
 113   1.0000       0.010240         0.2787
 114   1.0000       0.031577         0.8592
 115   1.0000       0.055825         1.5191
 116   0.0000       0.163432         4.4472
 117   0.0000       0.172138         4.6841
 118   0.0000       0.185605         5.0506
 119   0.0000       0.197646         5.3782
 120   0.0000       0.198154         5.3920

MULLIKEN ATOMIC CHARGES AND SPIN POPULATIONS
--------------------------------------------
   0 V :    0.443887    1.196410
   1 S :   -0.233269   -0.020657
   2 S :   -0.234841   -0.020412
   3 S :   -0.262548   -0.027034
   4 S :   -0.261538   -0.027247
   5 O :   -0.504354   -0.138444
   6 C :   -0.184344    0.008766
   7 C :   -0.059838    0.009965
   8 C :   -0.186380    0.008771
   9 C :   -0.057376    0.010172
  10 S :   -0.040406   -0.000617
  11 S :   -0.061692   -0.000113
  12 S :   -0.063216   -0.000088
  13 S :   -0.040596   -0.000696
  14 C :   -0.306152    0.000280
  15 C :   -0.304733    0.000297
  16 C :   -0.325597    0.000382
  17 C :   -0.325223    0.000407
  18 C :   -0.104795   -0.000054
  19 H :    0.152867   -0.000093
  20 H :    0.100865    0.000048
  21 H :    0.044649    0.000102
  22 H :    0.077628    0.000017
  23 H :    0.096763   -0.000007
  24 H :    0.136753   -0.000092
  25 C :   -0.105311   -0.000044
  26 H :    0.100553    0.000057
  27 H :    0.153317   -0.000097
  28 H :    0.077563    0.000012
  29 H :    0.044458    0.000104
  30 H :    0.136581   -0.000095
  31 H :    0.096326   -0.000002
Sum of atomic charges         :   -2.0000000

LOEWDIN ATOMIC CHARGES AND SPIN POPULATIONS
-------------------------------------------
   0 V :   -0.249412    1.150073
   1 S :    0.109384   -0.013569
   2 S :    0.107847   -0.013386
   3 S :    0.078642   -0.018148
   4 S :    0.079243   -0.018431
   5 O :   -0.348948   -0.123761
   6 C :   -0.548897    0.010690
   7 C :   -0.542511    0.009697
   8 C :   -0.547526    0.010572
   9 C :   -0.542225    0.009961
  10 S :    0.331984   -0.001192
  11 S :    0.322302   -0.000972
  12 S :    0.321397   -0.000952
  13 S :    0.330994   -0.001243
  14 C :   -0.290889    0.000161
  15 C :   -0.291088    0.000178
  16 C :   -0.301020    0.000178
  17 C :   -0.301411    0.000190
  18 C :   -0.185344   -0.000034
  19 H :    0.068595   -0.000024
  20 H :    0.045118    0.000011
  21 H :    0.046690    0.000028
  22 H :    0.053509    0.000015
  23 H :    0.049431    0.000001
  24 H :    0.063122   -0.000023
  25 C :   -0.185420   -0.000035
  26 H :    0.045004    0.000015
  27 H :    0.068747   -0.000025
  28 H :    0.053542    0.000014
  29 H :    0.046641    0.000029
  30 H :    0.063012   -0.000022
  31 H :    0.049487    0.000004

  Mayer bond orders larger than 0.100000
B(  0-V ,  1-S ) :   0.8001 B(  0-V ,  2-S ) :   0.8031 B(  0-V ,  3-S ) :   0.7851
B(  0-V ,  4-S ) :   0.7823 B(  0-V ,  5-O ) :   2.1056 B(  1-S ,  8-C ) :   1.1430
B(  2-S ,  6-C ) :   1.1404 B(  3-S ,  9-C ) :   1.0951 B(  4-S ,  7-C ) :   1.0992
B(  6-C ,  7-C ) :   1.5349 B(  6-C , 10-S ) :   0.9337 B(  7-C , 11-S ) :   0.9528
B(  8-C ,  9-C ) :   1.5334 B(  8-C , 13-S ) :   0.9335 B(  9-C , 12-S ) :   0.9528
B( 10-S , 16-C ) :   1.0073 B( 11-S , 14-C ) :   1.0016 B( 12-S , 15-C ) :   1.0014
B( 13-S , 17-C ) :   1.0070 B( 14-C , 18-C ) :   0.9061 B( 14-C , 23-H ) :   0.9755
B( 14-C , 24-H ) :   0.9664 B( 15-C , 25-C ) :   0.9068 B( 15-C , 30-H ) :   0.9660
B( 15-C , 31-H ) :   0.9756 B( 16-C , 18-C ) :   0.8723 B( 16-C , 19-H ) :   0.9911
B( 16-C , 20-H ) :   0.9607 B( 17-C , 25-C ) :   0.8719 B( 17-C , 26-H ) :   0.9605
B( 17-C , 27-H ) :   0.9916 B( 18-C , 21-H ) :   0.9556 B( 18-C , 22-H ) :   0.9696
B( 25-C , 28-H ) :   0.9696 B( 25-C , 29-H ) :   0.9556

FINAL SINGLE POINT ENERGY     -4592.672267395814

DIPOLE MOMENT
-------------
                                X             Y             Z
Electronic contribution:     20.33887      -3.97660      16.91502
Nuclear contribution   :    -22.70046       4.56306     -18.69011
                        -----------------------------------------
Total Dipole Moment    :     -2.36159       0.58646      -1.77509
                        -----------------------------------------
Magnitude (a.u.)       :      3.01197
Magnitude (Debye)      :      7.65582

Rotational constants in cm-1:     0.012749     0.002548     0.002431
Rotational constants in MHz :   382.212876    76.372374    72.882129

                             ****ORCA TERMINATED NORMALLY****
TOTAL RUN TIME: 0 days 0 hours 27 minutes 38 seconds 589 msec
