                         Program Version 5.0.4 -  RELEASE  -
|  1> ! nofrozencore ReducedPop printbasis
|  2> ! B3LYP TZVP
|  3>
|  4> %basis
|  5> newgto V "CP(PPP)" end
|  6> end
|  7>
|  8> %pal
|  9> nprocs 4
| 10> end
| 11>
| 12> % sym SymThresh 1e-2 end
| 13> * xyz -2 2
| 14> V 1.0429135665694038 -0.36884597954985543 0.14292136939027975
| 15> S -0.4239165494121686 -1.714686565762519 1.5720457903537728
| 16> S 0.0557318149964889 -1.6025549004223791 -1.7281219461775306
| 17> S 0.6196527025083534 1.3654400159395672 1.8198079814307466
| 18> S 1.1286709383115627 1.4672256948197089 -1.4784129838153204
| 19> O 2.5339660819296124 -0.9000506235447622 0.3521225160153386
| 20> C 0.4342161985984736 -0.5810365663488223 -3.141186267155175
| 21> C 0.8625255552779414 0.6485693733085006 -3.0409619225963183
| 22> C -0.47807550719816994 -0.780078720201071 3.09277166867127
| 23> C -0.06223007626739924 0.4472307829818056 3.1917886025916933
| 24> S 0.13659010649489617 -1.4114624796086113 -4.730810864220405
| 25> S 1.2160478722272614 1.7052000248718606 -4.477618777370127
| 26> S -0.14891596949286676 1.4163358739103844 4.729657908308539
| 27> S -1.2067887113612583 -1.7084566956885252 4.478416897818031
| 28> C -0.457302563947326 1.938416464262385 -5.22482235510067
| 29> C -1.9692556047386764 1.6067538367474976 4.9770457450206855
| 30> C -1.2868604318500851 -0.4583401413594943 -5.421558900342057
| 31> C -2.781714959673944 -0.7943705555140631 4.785054781215829
| 32> C -0.9713295010757469 0.8408587983507131 -6.13325393676816
| 33> H -2.1091229205086686 -0.46808286835710183 -4.666041584045042
| 34> H -1.9108031089900348 -1.1851718148516124 -6.002077616662279
| 35> H -1.958166901977791 1.2102715048919142 -6.473279818168094
| 36> H -0.15150451243967372 0.6143166289470086 -6.83086619448424
| 37> H -0.47553279320915665 2.9703011184531523 -5.6600523345927325
| 38> H -1.1360861284760109 2.339090300483043 -4.433780720659124
| 39> C -2.7054311879627373 0.4577243176135781 5.6322835059613885
| 40> H -3.541785294793693 -1.555765086710374 5.107558977557989
| 41> H -3.361119470962655 -0.7696442074137134 3.827099388346249
| 42> H -2.106660000087574 0.18451708607375047 6.515431595363109
| 43> H -3.7559368260122694 0.8090202780341843 5.681243139510961
| 44> H -2.3981150100075563 2.071270025961047 4.053152274588111
| 45> H -2.130582134393199 2.6163847444181174 5.441106141683478
| 46> *
| 47>
| 48> % eprnmr
| 49> gtensor true
| 50> Nuclei = all H {aiso,adip,aorb,fgrad,rho}
| 51> Nuclei = all V {aiso,adip,aorb,fgrad,rho}
| 52> end
| 53>
| 54>                          ****END OF INPUT****

CARTESIAN COORDINATES (ANGSTROEM)
---------------------------------
  V      1.044030   -0.369241    0.142992
  S     -0.422800   -1.715081    1.572117
  S      0.056849   -1.602950   -1.728051
  S      0.620770    1.365045    1.819879
  S      1.129788    1.466831   -1.478342
  O      2.535083   -0.900446    0.352193
  C      0.435333   -0.581431   -3.141116
  C      0.863642    0.648174   -3.040891
  C     -0.476959   -0.780474    3.092842
  C     -0.061113    0.446836    3.191859
  S      0.137707   -1.411857   -4.730740
  S      1.217165    1.704805   -4.477548
  S     -0.147799    1.415941    4.729729
  S     -1.205672   -1.708852    4.478488
  C     -0.456186    1.938022   -5.224752
  C     -1.968139    1.606359    4.977117
  C     -1.285744   -0.458735   -5.421488
  C     -2.780598   -0.794765    4.785126
  C     -0.970213    0.840464   -6.133183
  H     -2.108006   -0.468478   -4.665971
  H     -1.909686   -1.185567   -6.002007
  H     -1.957050    1.209877   -6.473209
  H     -0.150388    0.613922   -6.830795
  H     -0.474416    2.969906   -5.659982
  H     -1.134969    2.338695   -4.433710
  C     -2.704314    0.457329    5.632354
  H     -3.540668   -1.556160    5.107630
  H     -3.360003   -0.770039    3.827170
  H     -2.105543    0.184122    6.515502
  H     -3.754820    0.808625    5.681314
  H     -2.396998    2.070875    4.053223
  H     -2.129465    2.615990    5.441177

 Total Charge           Charge          ....   -2
 Multiplicity           Mult            ....    2
 Number of Electrons    NEL             ....  233
 Basis Dimension        Dim             ....  517

ORBITAL ENERGIES
----------------
                 SPIN UP ORBITALS
  NO   OCC          E(Eh)            E(eV)
   0   1.0000    -196.637850     -5350.7879
   1   1.0000     -88.678238     -2413.0575
   2   1.0000     -88.678195     -2413.0564
   3   1.0000     -88.678032     -2413.0519
   4   1.0000     -88.677972     -2413.0503
   5   1.0000     -88.609577     -2411.1892
   6   1.0000     -88.609568     -2411.1889
   7   1.0000     -88.609477     -2411.1865
   8   1.0000     -88.609390     -2411.1841
   9   1.0000     -22.013655      -599.0220
  10   1.0000     -18.854731      -513.0633
  11   1.0000     -18.520527      -503.9692
  12   1.0000     -18.514672      -503.8098
  13   1.0000     -18.514656      -503.8094
  14   1.0000     -10.019232      -272.6372
  15   1.0000     -10.019169      -272.6355
  16   1.0000     -10.018646      -272.6212
  17   1.0000     -10.018636      -272.6209
  18   1.0000     -10.014059      -272.4964
  19   1.0000     -10.013190      -272.4727
  20   1.0000      -9.987035      -271.7610
  21   1.0000      -9.986602      -271.7493
  22   1.0000      -9.985959      -271.7318
  23   1.0000      -9.985477      -271.7186
  24   1.0000      -7.731484      -210.3844
  25   1.0000      -7.731465      -210.3838
  26   1.0000      -7.731319      -210.3799
  27   1.0000      -7.731268      -210.3785
  28   1.0000      -7.663804      -208.5427
  29   1.0000      -7.663769      -208.5418
  30   1.0000      -7.663721      -208.5404
  31   1.0000      -7.663632      -208.5380
  32   1.0000      -5.696743      -155.0163
  33   1.0000      -5.696723      -155.0157
  34   1.0000      -5.696582      -155.0119
  35   1.0000      -5.696528      -155.0104
  36   1.0000      -5.692891      -154.9115
  37   1.0000      -5.692873      -154.9110
  38   1.0000      -5.692720      -154.9068
  39   1.0000      -5.692670      -154.9054
  40   1.0000      -5.686237      -154.7304
  41   1.0000      -5.686210      -154.7297
  42   1.0000      -5.686064      -154.7257
  43   1.0000      -5.686017      -154.7244
  44   1.0000      -5.628842      -153.1686
  45   1.0000      -5.628821      -153.1680
  46   1.0000      -5.628770      -153.1666
  47   1.0000      -5.628676      -153.1640
  48   1.0000      -5.622247      -152.9891
  49   1.0000      -5.622220      -152.9884
  50   1.0000      -5.622159      -152.9867
  51   1.0000      -5.622077      -152.9845
  52   1.0000      -5.621622      -152.9721
  53   1.0000      -5.621590      -152.9712
  54   1.0000      -5.621502      -152.9688
  55   1.0000      -5.621411      -152.9664
  56   1.0000      -2.407247       -65.5045
  57   1.0000      -1.448665       -39.4202
  58   1.0000      -1.436920       -39.1006
  59   1.0000      -1.435952       -39.0743
  60   1.0000      -0.646607       -17.5951
  61   1.0000      -0.646205       -17.5841
  62   1.0000      -0.615968       -16.7613
  63   1.0000      -0.599488       -16.3129
  64   1.0000      -0.598730       -16.2923
  65   1.0000      -0.573946       -15.6179
  66   1.0000      -0.573914       -15.6170
  67   1.0000      -0.492647       -13.4056
  68   1.0000      -0.491131       -13.3644
  69   1.0000      -0.484312       -13.1788
  70   1.0000      -0.483197       -13.1485
  71   1.0000      -0.422053       -11.4846
  72   1.0000      -0.418966       -11.4006
  73   1.0000      -0.418485       -11.3876
  74   1.0000      -0.413536       -11.2529
  75   1.0000      -0.387703       -10.5499
  76   1.0000      -0.383847       -10.4450
  77   1.0000      -0.298681        -8.1275
  78   1.0000      -0.297465        -8.0944
  79   1.0000      -0.270693        -7.3659
  80   1.0000      -0.269415        -7.3311
  81   1.0000      -0.257739        -7.0134
  82   1.0000      -0.252700        -6.8763
  83   1.0000      -0.243544        -6.6272
  84   1.0000      -0.240859        -6.5541
  85   1.0000      -0.204969        -5.5775
  86   1.0000      -0.203371        -5.5340
  87   1.0000      -0.182726        -4.9722
  88   1.0000      -0.181312        -4.9338
  89   1.0000      -0.179891        -4.8951
  90   1.0000      -0.168194        -4.5768
  91   1.0000      -0.167218        -4.5502
  92   1.0000      -0.151109        -4.1119
  93   1.0000      -0.147592        -4.0162
  94   1.0000      -0.139704        -3.8015
  95   1.0000      -0.137193        -3.7332
  96   1.0000      -0.135444        -3.6856
  97   1.0000      -0.095968        -2.6114
  98   1.0000      -0.090076        -2.4511
  99   1.0000      -0.087026        -2.3681
 100   1.0000      -0.085102        -2.3158
 101   1.0000      -0.077760        -2.1159
 102   1.0000      -0.072633        -1.9764
 103   1.0000      -0.070382        -1.9152
 104   1.0000      -0.051893        -1.4121
 105   1.0000      -0.041525        -1.1300
 106   1.0000      -0.036724        -0.9993
 107   1.0000      -0.035280        -0.9600
 108   1.0000      -0.031824        -0.8660
 109   1.0000      -0.010662        -0.2901
 110   1.0000      -0.003164        -0.0861
 111   1.0000      -0.000374        -0.0102
 112   1.0000       0.010505         0.2859
 113   1.0000       0.011578         0.3151
 114   1.0000       0.018154         0.4940
 115   1.0000       0.030896         0.8407
 116   1.0000       0.057470         1.5638
 117   0.0000       0.190948         5.1960
 118   0.0000       0.191795         5.2190
 119   0.0000       0.191943         5.2230
 120   0.0000       0.198274         5.3953
 121   0.0000       0.212649         5.7865

                 SPIN DOWN ORBITALS
  NO   OCC          E(Eh)            E(eV)
   0   1.0000    -196.637992     -5350.7918
   1   1.0000     -88.678251     -2413.0579
   2   1.0000     -88.678208     -2413.0567
   3   1.0000     -88.678045     -2413.0523
   4   1.0000     -88.677985     -2413.0506
   5   1.0000     -88.609738     -2411.1936
   6   1.0000     -88.609729     -2411.1933
   7   1.0000     -88.609639     -2411.1909
   8   1.0000     -88.609552     -2411.1885
   9   1.0000     -21.999010      -598.6235
  10   1.0000     -18.858306      -513.1606
  11   1.0000     -18.515411      -503.8299
  12   1.0000     -18.499202      -503.3889
  13   1.0000     -18.498550      -503.3711
  14   1.0000     -10.019229      -272.6371
  15   1.0000     -10.019166      -272.6354
  16   1.0000     -10.018643      -272.6211
  17   1.0000     -10.018632      -272.6208
  18   1.0000     -10.014059      -272.4964
  19   1.0000     -10.013189      -272.4727
  20   1.0000      -9.986770      -271.7538
  21   1.0000      -9.986336      -271.7420
  22   1.0000      -9.985697      -271.7246
  23   1.0000      -9.985213      -271.7115
  24   1.0000      -7.731498      -210.3847
  25   1.0000      -7.731479      -210.3842
  26   1.0000      -7.731333      -210.3803
  27   1.0000      -7.731282      -210.3789
  28   1.0000      -7.663954      -208.5468
  29   1.0000      -7.663919      -208.5458
  30   1.0000      -7.663871      -208.5445
  31   1.0000      -7.663782      -208.5421
  32   1.0000      -5.696760      -155.0167
  33   1.0000      -5.696739      -155.0162
  34   1.0000      -5.696599      -155.0123
  35   1.0000      -5.696544      -155.0108
  36   1.0000      -5.692912      -154.9120
  37   1.0000      -5.692894      -154.9115
  38   1.0000      -5.692740      -154.9073
  39   1.0000      -5.692690      -154.9060
  40   1.0000      -5.686253      -154.7308
  41   1.0000      -5.686227      -154.7301
  42   1.0000      -5.686080      -154.7261
  43   1.0000      -5.686033      -154.7248
  44   1.0000      -5.629016      -153.1733
  45   1.0000      -5.628996      -153.1728
  46   1.0000      -5.628945      -153.1714
  47   1.0000      -5.628850      -153.1688
  48   1.0000      -5.622646      -153.0000
  49   1.0000      -5.622619      -152.9992
  50   1.0000      -5.622560      -152.9976
  51   1.0000      -5.622479      -152.9954
  52   1.0000      -5.621754      -152.9757
  53   1.0000      -5.621721      -152.9748
  54   1.0000      -5.621633      -152.9724
  55   1.0000      -5.621541      -152.9699
  56   1.0000      -2.363129       -64.3040
  57   1.0000      -1.429888       -38.9092
  58   1.0000      -1.375651       -37.4334
  59   1.0000      -1.374970       -37.4148
  60   1.0000      -0.646548       -17.5935
  61   1.0000      -0.646147       -17.5825
  62   1.0000      -0.623608       -16.9692
  63   1.0000      -0.599268       -16.3069
  64   1.0000      -0.598494       -16.2859
  65   1.0000      -0.573943       -15.6178
  66   1.0000      -0.573912       -15.6169
  67   1.0000      -0.492650       -13.4057
  68   1.0000      -0.491143       -13.3647
  69   1.0000      -0.484310       -13.1788
  70   1.0000      -0.483210       -13.1488
  71   1.0000      -0.422313       -11.4917
  72   1.0000      -0.419299       -11.4097
  73   1.0000      -0.418502       -11.3880
  74   1.0000      -0.413624       -11.2553
  75   1.0000      -0.387665       -10.5489
  76   1.0000      -0.383886       -10.4461
  77   1.0000      -0.298655        -8.1268
  78   1.0000      -0.297440        -8.0938
  79   1.0000      -0.270681        -7.3656
  80   1.0000      -0.269405        -7.3309
  81   1.0000      -0.257521        -7.0075
  82   1.0000      -0.252665        -6.8754
  83   1.0000      -0.243459        -6.6249
  84   1.0000      -0.240785        -6.5521
  85   1.0000      -0.204779        -5.5723
  86   1.0000      -0.203291        -5.5318
  87   1.0000      -0.181307        -4.9336
  88   1.0000      -0.180341        -4.9073
  89   1.0000      -0.179884        -4.8949
  90   1.0000      -0.168126        -4.5749
  91   1.0000      -0.167143        -4.5482
  92   1.0000      -0.150395        -4.0925
  93   1.0000      -0.147229        -4.0063
  94   1.0000      -0.139462        -3.7950
  95   1.0000      -0.136914        -3.7256
  96   1.0000      -0.135362        -3.6834
  97   1.0000      -0.094460        -2.5704
  98   1.0000      -0.090054        -2.4505
  99   1.0000      -0.086506        -2.3539
 100   1.0000      -0.085014        -2.3134
 101   1.0000      -0.079675        -2.1681
 102   1.0000      -0.072202        -1.9647
 103   1.0000      -0.071720        -1.9516
 104   1.0000      -0.048473        -1.3190
 105   1.0000      -0.041883        -1.1397
 106   1.0000      -0.036028        -0.9804
 107   1.0000      -0.033895        -0.9223
 108   1.0000      -0.031824        -0.8660
 109   1.0000      -0.009736        -0.2649
 110   1.0000      -0.001754        -0.0477
 111   1.0000      -0.001662        -0.0452
 112   1.0000       0.011012         0.2997
 113   1.0000       0.012485         0.3397
 114   1.0000       0.031081         0.8458
 115   1.0000       0.056638         1.5412
 116   0.0000       0.186227         5.0675
 117   0.0000       0.191194         5.2027
 118   0.0000       0.191953         5.2233
 119   0.0000       0.193091         5.2543
 120   0.0000       0.198681         5.4064

MULLIKEN ATOMIC CHARGES AND SPIN POPULATIONS
--------------------------------------------
   0 V :    0.457248    1.198243
   1 S :   -0.268124   -0.024579
   2 S :   -0.266954   -0.024379
   3 S :   -0.268269   -0.024538
   4 S :   -0.267261   -0.024280
   5 O :   -0.508873   -0.138569
   6 C :   -0.098535    0.009414
   7 C :   -0.097272    0.009399
   8 C :   -0.095388    0.009533
   9 C :   -0.095992    0.009503
  10 S :   -0.041152   -0.000159
  11 S :   -0.041028   -0.000192
  12 S :   -0.040516   -0.000187
  13 S :   -0.040434   -0.000214
  14 C :   -0.353568    0.000242
  15 C :   -0.354158    0.000239
  16 C :   -0.352725    0.000228
  17 C :   -0.353955    0.000256
  18 C :   -0.058895    0.000189
  19 H :    0.137749   -0.000118
  20 H :    0.097424    0.000028
  21 H :    0.036729    0.000017
  22 H :    0.095314   -0.000010
  23 H :    0.097448    0.000029
  24 H :    0.138109   -0.000118
  25 C :   -0.055532    0.000195
  26 H :    0.096579    0.000039
  27 H :    0.136400   -0.000124
  28 H :    0.096497   -0.000018
  29 H :    0.035809    0.000014
  30 H :    0.136653   -0.000121
  31 H :    0.096673    0.000037
Sum of atomic charges         :   -2.0000000

LOEWDIN ATOMIC CHARGES AND SPIN POPULATIONS
-------------------------------------------
   0 V :   -0.240833    1.152182
   1 S :    0.073777   -0.016728
   2 S :    0.075121   -0.016573
   3 S :    0.073654   -0.016674
   4 S :    0.074761   -0.016532
   5 O :   -0.352221   -0.124065
   6 C :   -0.536180    0.010508
   7 C :   -0.535723    0.010462
   8 C :   -0.533638    0.010520
   9 C :   -0.534003    0.010549
  10 S :    0.334122   -0.001014
  11 S :    0.333955   -0.001032
  12 S :    0.333625   -0.001030
  13 S :    0.333644   -0.001041
  14 C :   -0.318170    0.000152
  15 C :   -0.320471    0.000153
  16 C :   -0.318230    0.000144
  17 C :   -0.320795    0.000163
  18 C :   -0.177607   -0.000030
  19 H :    0.067628   -0.000042
  20 H :    0.051587    0.000008
  21 H :    0.058816    0.000014
  22 H :    0.066682    0.000012
  23 H :    0.051616    0.000009
  24 H :    0.067777   -0.000042
  25 C :   -0.177795   -0.000032
  26 H :    0.052343    0.000014
  27 H :    0.068137   -0.000044
  28 H :    0.067907    0.000009
  29 H :    0.060110    0.000015
  30 H :    0.068144   -0.000044
  31 H :    0.052262    0.000012

  Mayer bond orders larger than 0.100000
B(  0-V ,  1-S ) :   0.7876 B(  0-V ,  2-S ) :   0.7894 B(  0-V ,  3-S ) :   0.7897
B(  0-V ,  4-S ) :   0.7868 B(  0-V ,  5-O ) :   2.1071 B(  1-S ,  8-C ) :   1.1216
B(  2-S ,  6-C ) :   1.1224 B(  3-S ,  9-C ) :   1.1209 B(  4-S ,  7-C ) :   1.1234
B(  6-C ,  7-C ) :   1.5604 B(  6-C , 10-S ) :   0.9327 B(  7-C , 11-S ) :   0.9331
B(  8-C ,  9-C ) :   1.5659 B(  8-C , 13-S ) :   0.9305 B(  9-C , 12-S ) :   0.9308
B( 10-S , 16-C ) :   1.0220 B( 11-S , 14-C ) :   1.0217 B( 12-S , 15-C ) :   1.0254
B( 13-S , 17-C ) :   1.0259 B( 14-C , 18-C ) :   0.9004 B( 14-C , 23-H ) :   0.9634
B( 14-C , 24-H ) :   0.9594 B( 15-C , 25-C ) :   0.9021 B( 15-C , 30-H ) :   0.9576
B( 15-C , 31-H ) :   0.9624 B( 16-C , 18-C ) :   0.9004 B( 16-C , 19-H ) :   0.9594
B( 16-C , 20-H ) :   0.9633 B( 17-C , 25-C ) :   0.9023 B( 17-C , 26-H ) :   0.9624
B( 17-C , 27-H ) :   0.9573 B( 18-C , 21-H ) :   0.9450 B( 18-C , 22-H ) :   0.9827
B( 25-C , 28-H ) :   0.9828 B( 25-C , 29-H ) :   0.9441

FINAL SINGLE POINT ENERGY     -4592.652289248344

DIPOLE MOMENT
-------------
                                X             Y             Z
Electronic contribution:     25.30813      -8.93519       3.48220
Nuclear contribution   :    -28.30481       9.99371      -3.88830
                        -----------------------------------------
Total Dipole Moment    :     -2.99668       1.05852      -0.40609
                        -----------------------------------------
Magnitude (a.u.)       :      3.20398
Magnitude (Debye)      :      8.14387

Rotational constants in cm-1:     0.012766     0.002548     0.002432
Rotational constants in MHz :   382.706499    76.396452    72.905800

                             ****ORCA TERMINATED NORMALLY****
TOTAL RUN TIME: 0 days 0 hours 42 minutes 56 seconds 394 msec
