                         Program Version 5.0.4 -  RELEASE  -
|  1> ! nofrozencore ReducedPop printbasis
|  2> ! B3LYP TZVP
|  3>
|  4> %basis
|  5> newgto V "CP(PPP)" end
|  6> end
|  7>
|  8> %pal
|  9> nprocs 8
| 10> end
| 11>
| 12> % sym SymThresh 1e-2 end
| 13> * xyz -2 2
| 14> V 0.13268713646451208 -0.5914429881183775 0.9362714337874741
| 15> S -1.655575608584549 -1.6487333516242961 -0.3636685875912502
| 16> S 1.6565498366452933 -1.4992535030510072 -0.7523868808802657
| 17> S -1.5698786295388656 1.1179292011706936 1.3587285224514232
| 18> S 1.7479913226500652 1.2510954172782809 0.9959609234801132
| 19> O 0.31779656445993953 -1.4411970081931937 2.2755693736973717
| 20> C 3.1328502797942543 -0.547231981316769 -0.5560089397259571
| 21> C 3.1704170201659743 0.6013720390863125 0.17255829814898418
| 22> C -3.1201141375737986 -0.8206937123538587 0.17326672740012436
| 23> C -3.084570902648957 0.3368790610626328 0.894020682668446
| 24> S 4.574346474487198 -1.1985466966191933 -1.421169863437427
| 25> S 4.664870300300724 1.5954399333728573 0.3442016782083384
| 26> S -4.5752129827473125 1.2071430202301074 1.4062769841721003
| 27> S -4.661966674794273 -1.5975189349088923 -0.33886405677820225
| 28> C 4.9276289557787765 2.238219221599137 -1.36694530347257
| 29> C -5.260024088621659 1.8009405677176817 -0.20114926867525634
| 30> C 4.859059169035868 0.055713434040114605 -2.745957645079201
| 31> C -5.328673548022534 -0.38839822806827523 -1.5627965130797916
| 32> C 5.672603327265754 1.2956699152196114 -2.3305877003299607
| 33> H 3.859827563351659 0.24672090624390647 -3.1480093167584453
| 34> H 5.460674720112288 -0.42483805666264274 -3.529209580275261
| 35> H 5.882809810438318 1.8691365244789806 -3.248902522541159
| 36> H 6.643740611984001 1.0026104866894447 -1.9147613449366998
| 37> H 5.570709714201106 3.1252378636017086 -1.2895389804952193
| 38> H 3.9315019831177946 2.5617482695624294 -1.6826838163867108
| 39> C -6.175734685026719 0.7758872541353558 -0.949438075681204
| 40> H -6.161622889926845 -0.819786656132924 -2.17817499801576
| 41> H -4.40655580312878 -0.2765396850415147 -2.180580990569303
| 42> H -7.037781383703484 0.4345870507880762 -0.35664733238168683
| 43> H -6.596285877617059 1.3249590376972025 -1.8122860251451025
| 44> H -4.326201699937454 2.262040314015843 -0.6007236033063689
| 45> H -6.054276311360877 2.5813257199005224 -0.06460485387781219
| 46> *
| 47>
| 48> % eprnmr
| 49> gtensor true
| 50> Nuclei = all H {aiso,adip,aorb,fgrad,rho}
| 51> Nuclei = all V {aiso,adip,aorb,fgrad,rho}
| 52> end
| 53>
| 54>                          ****END OF INPUT****

CARTESIAN COORDINATES (ANGSTROEM)
---------------------------------
  V      0.132909   -0.592073    0.937253
  S     -1.655354   -1.649363   -0.362687
  S      1.656771   -1.499883   -0.751406
  S     -1.569657    1.117299    1.359710
  S      1.748213    1.250465    0.996942
  O      0.318018   -1.441827    2.276551
  C      3.133072   -0.547862   -0.555028
  C      3.170639    0.600742    0.173540
  C     -3.119893   -0.821324    0.174248
  C     -3.084349    0.336249    0.895002
  S      4.574568   -1.199177   -1.420189
  S      4.665092    1.594810    0.345183
  S     -4.574991    1.206513    1.407258
  S     -4.661745   -1.598149   -0.337883
  C      4.927851    2.237589   -1.365964
  C     -5.259803    1.800311   -0.200168
  C      4.859281    0.055083   -2.744976
  C     -5.328452   -0.389028   -1.561815
  C      5.672825    1.295040   -2.329606
  H      3.860049    0.246091   -3.147028
  H      5.460896   -0.425468   -3.528228
  H      5.883031    1.868507   -3.247921
  H      6.643962    1.001981   -1.913780
  H      5.570931    3.124608   -1.288558
  H      3.931724    2.561118   -1.681703
  C     -6.175513    0.775257   -0.948457
  H     -6.161401   -0.820417   -2.177194
  H     -4.406334   -0.277170   -2.179600
  H     -7.037560    0.433957   -0.355666
  H     -6.596064    1.324329   -1.811305
  H     -4.325980    2.261410   -0.599742
  H     -6.054055    2.580696   -0.063624

 Total Charge           Charge          ....   -2
 Multiplicity           Mult            ....    2
 Number of Electrons    NEL             ....  233
 Basis Dimension        Dim             ....  517

ORBITAL ENERGIES
----------------
                 SPIN UP ORBITALS
  NO   OCC          E(Eh)            E(eV)
   0   1.0000    -196.641096     -5350.8763
   1   1.0000     -88.676190     -2413.0018
   2   1.0000     -88.676172     -2413.0013
   3   1.0000     -88.674768     -2412.9631
   4   1.0000     -88.674726     -2412.9620
   5   1.0000     -88.613476     -2411.2953
   6   1.0000     -88.613463     -2411.2949
   7   1.0000     -88.613012     -2411.2826
   8   1.0000     -88.612986     -2411.2819
   9   1.0000     -22.016866      -599.1094
  10   1.0000     -18.858134      -513.1559
  11   1.0000     -18.523699      -504.0555
  12   1.0000     -18.517913      -503.8980
  13   1.0000     -18.517873      -503.8970
  14   1.0000     -10.020496      -272.6716
  15   1.0000     -10.020460      -272.6706
  16   1.0000     -10.016358      -272.5590
  17   1.0000     -10.016327      -272.5581
  18   1.0000     -10.016100      -272.5519
  19   1.0000     -10.008054      -272.3330
  20   1.0000      -9.993339      -271.9326
  21   1.0000      -9.992747      -271.9165
  22   1.0000      -9.992649      -271.9138
  23   1.0000      -9.992034      -271.8971
  24   1.0000      -7.729900      -210.3413
  25   1.0000      -7.729856      -210.3401
  26   1.0000      -7.728592      -210.3057
  27   1.0000      -7.728564      -210.3049
  28   1.0000      -7.667952      -208.6556
  29   1.0000      -7.667906      -208.6543
  30   1.0000      -7.667430      -208.6414
  31   1.0000      -7.667388      -208.6402
  32   1.0000      -5.695123      -154.9722
  33   1.0000      -5.695081      -154.9710
  34   1.0000      -5.693751      -154.9348
  35   1.0000      -5.693729      -154.9343
  36   1.0000      -5.691258      -154.8670
  37   1.0000      -5.691220      -154.8660
  38   1.0000      -5.689974      -154.8321
  39   1.0000      -5.689944      -154.8312
  40   1.0000      -5.684646      -154.6871
  41   1.0000      -5.684611      -154.6861
  42   1.0000      -5.683350      -154.6518
  43   1.0000      -5.683318      -154.6510
  44   1.0000      -5.632747      -153.2749
  45   1.0000      -5.632719      -153.2741
  46   1.0000      -5.632260      -153.2616
  47   1.0000      -5.632226      -153.2607
  48   1.0000      -5.626378      -153.1015
  49   1.0000      -5.626357      -153.1010
  50   1.0000      -5.625954      -153.0900
  51   1.0000      -5.625923      -153.0891
  52   1.0000      -5.625883      -153.0881
  53   1.0000      -5.625831      -153.0867
  54   1.0000      -5.625427      -153.0756
  55   1.0000      -5.625400      -153.0749
  56   1.0000      -2.410584       -65.5953
  57   1.0000      -1.451923       -39.5088
  58   1.0000      -1.440374       -39.1946
  59   1.0000      -1.439299       -39.1653
  60   1.0000      -0.642560       -17.4850
  61   1.0000      -0.639900       -17.4126
  62   1.0000      -0.619104       -16.8467
  63   1.0000      -0.593442       -16.1484
  64   1.0000      -0.591999       -16.1091
  65   1.0000      -0.575748       -15.6669
  66   1.0000      -0.574502       -15.6330
  67   1.0000      -0.493161       -13.4196
  68   1.0000      -0.490836       -13.3563
  69   1.0000      -0.487262       -13.2591
  70   1.0000      -0.484871       -13.1940
  71   1.0000      -0.422521       -11.4974
  72   1.0000      -0.419265       -11.4088
  73   1.0000      -0.413128       -11.2418
  74   1.0000      -0.407747       -11.0954
  75   1.0000      -0.375226       -10.2104
  76   1.0000      -0.370846       -10.0912
  77   1.0000      -0.286835        -7.8052
  78   1.0000      -0.275940        -7.5087
  79   1.0000      -0.275093        -7.4857
  80   1.0000      -0.269106        -7.3228
  81   1.0000      -0.265397        -7.2218
  82   1.0000      -0.258858        -7.0439
  83   1.0000      -0.252103        -6.8601
  84   1.0000      -0.245535        -6.6813
  85   1.0000      -0.217830        -5.9275
  86   1.0000      -0.200022        -5.4429
  87   1.0000      -0.192991        -5.2516
  88   1.0000      -0.190204        -5.1757
  89   1.0000      -0.182097        -4.9551
  90   1.0000      -0.181766        -4.9461
  91   1.0000      -0.162163        -4.4127
  92   1.0000      -0.151368        -4.1189
  93   1.0000      -0.146213        -3.9787
  94   1.0000      -0.143002        -3.8913
  95   1.0000      -0.139516        -3.7964
  96   1.0000      -0.134008        -3.6466
  97   1.0000      -0.097879        -2.6634
  98   1.0000      -0.093088        -2.5331
  99   1.0000      -0.089627        -2.4389
 100   1.0000      -0.083289        -2.2664
 101   1.0000      -0.081090        -2.2066
 102   1.0000      -0.079412        -2.1609
 103   1.0000      -0.070186        -1.9098
 104   1.0000      -0.050966        -1.3869
 105   1.0000      -0.038521        -1.0482
 106   1.0000      -0.037989        -1.0337
 107   1.0000      -0.035035        -0.9534
 108   1.0000      -0.031774        -0.8646
 109   1.0000      -0.013557        -0.3689
 110   1.0000      -0.005426        -0.1477
 111   1.0000      -0.002977        -0.0810
 112   1.0000       0.005022         0.1366
 113   1.0000       0.010498         0.2857
 114   1.0000       0.015333         0.4172
 115   1.0000       0.032685         0.8894
 116   1.0000       0.058729         1.5981
 117   0.0000       0.186361         5.0712
 118   0.0000       0.192839         5.2474
 119   0.0000       0.194295         5.2870
 120   0.0000       0.195582         5.3220
 121   0.0000       0.210276         5.7219

                 SPIN DOWN ORBITALS
  NO   OCC          E(Eh)            E(eV)
   0   1.0000    -196.641238     -5350.8801
   1   1.0000     -88.676203     -2413.0022
   2   1.0000     -88.676185     -2413.0017
   3   1.0000     -88.674781     -2412.9635
   4   1.0000     -88.674740     -2412.9623
   5   1.0000     -88.613635     -2411.2996
   6   1.0000     -88.613623     -2411.2993
   7   1.0000     -88.613172     -2411.2870
   8   1.0000     -88.613146     -2411.2863
   9   1.0000     -22.002190      -598.7100
  10   1.0000     -18.861727      -513.2537
  11   1.0000     -18.518563      -503.9157
  12   1.0000     -18.502410      -503.4762
  13   1.0000     -18.501739      -503.4579
  14   1.0000     -10.020492      -272.6714
  15   1.0000     -10.020456      -272.6705
  16   1.0000     -10.016354      -272.5589
  17   1.0000     -10.016323      -272.5580
  18   1.0000     -10.016100      -272.5519
  19   1.0000     -10.008054      -272.3330
  20   1.0000      -9.993085      -271.9257
  21   1.0000      -9.992493      -271.9096
  22   1.0000      -9.992396      -271.9069
  23   1.0000      -9.991781      -271.8902
  24   1.0000      -7.729914      -210.3416
  25   1.0000      -7.729869      -210.3404
  26   1.0000      -7.728606      -210.3061
  27   1.0000      -7.728578      -210.3053
  28   1.0000      -7.668100      -208.6596
  29   1.0000      -7.668055      -208.6584
  30   1.0000      -7.667579      -208.6454
  31   1.0000      -7.667536      -208.6443
  32   1.0000      -5.695140      -154.9726
  33   1.0000      -5.695098      -154.9715
  34   1.0000      -5.693767      -154.9353
  35   1.0000      -5.693746      -154.9347
  36   1.0000      -5.691278      -154.8676
  37   1.0000      -5.691240      -154.8665
  38   1.0000      -5.689994      -154.8326
  39   1.0000      -5.689964      -154.8318
  40   1.0000      -5.684663      -154.6875
  41   1.0000      -5.684628      -154.6866
  42   1.0000      -5.683367      -154.6523
  43   1.0000      -5.683336      -154.6514
  44   1.0000      -5.632919      -153.2795
  45   1.0000      -5.632890      -153.2787
  46   1.0000      -5.632433      -153.2663
  47   1.0000      -5.632398      -153.2653
  48   1.0000      -5.626764      -153.1120
  49   1.0000      -5.626743      -153.1115
  50   1.0000      -5.626272      -153.0986
  51   1.0000      -5.626221      -153.0973
  52   1.0000      -5.626092      -153.0937
  53   1.0000      -5.626062      -153.0929
  54   1.0000      -5.625565      -153.0794
  55   1.0000      -5.625537      -153.0786
  56   1.0000      -2.366378       -64.3924
  57   1.0000      -1.433072       -38.9959
  58   1.0000      -1.378938       -37.5228
  59   1.0000      -1.378302       -37.5055
  60   1.0000      -0.642506       -17.4835
  61   1.0000      -0.639837       -17.4109
  62   1.0000      -0.626805       -17.0562
  63   1.0000      -0.593254       -16.1433
  64   1.0000      -0.591816       -16.1041
  65   1.0000      -0.575743       -15.6668
  66   1.0000      -0.574495       -15.6328
  67   1.0000      -0.493185       -13.4203
  68   1.0000      -0.490871       -13.3573
  69   1.0000      -0.487275       -13.2594
  70   1.0000      -0.484901       -13.1948
  71   1.0000      -0.422764       -11.5040
  72   1.0000      -0.419559       -11.4168
  73   1.0000      -0.413139       -11.2421
  74   1.0000      -0.407847       -11.0981
  75   1.0000      -0.375190       -10.2094
  76   1.0000      -0.370854       -10.0915
  77   1.0000      -0.286817        -7.8047
  78   1.0000      -0.275920        -7.5082
  79   1.0000      -0.275066        -7.4849
  80   1.0000      -0.269094        -7.3224
  81   1.0000      -0.265390        -7.2216
  82   1.0000      -0.258745        -7.0408
  83   1.0000      -0.251894        -6.8544
  84   1.0000      -0.245419        -6.6782
  85   1.0000      -0.217818        -5.9271
  86   1.0000      -0.199922        -5.4401
  87   1.0000      -0.192620        -5.2415
  88   1.0000      -0.190104        -5.1730
  89   1.0000      -0.181752        -4.9457
  90   1.0000      -0.179977        -4.8974
  91   1.0000      -0.162157        -4.4125
  92   1.0000      -0.150684        -4.1003
  93   1.0000      -0.145869        -3.9693
  94   1.0000      -0.142734        -3.8840
  95   1.0000      -0.139328        -3.7913
  96   1.0000      -0.133699        -3.6381
  97   1.0000      -0.096419        -2.6237
  98   1.0000      -0.092642        -2.5209
  99   1.0000      -0.089792        -2.4434
 100   1.0000      -0.083305        -2.2668
 101   1.0000      -0.082934        -2.2567
 102   1.0000      -0.079116        -2.1529
 103   1.0000      -0.071504        -1.9457
 104   1.0000      -0.046635        -1.2690
 105   1.0000      -0.038220        -1.0400
 106   1.0000      -0.037588        -1.0228
 107   1.0000      -0.034094        -0.9277
 108   1.0000      -0.031724        -0.8632
 109   1.0000      -0.012648        -0.3442
 110   1.0000      -0.006772        -0.1843
 111   1.0000      -0.002213        -0.0602
 112   1.0000       0.006040         0.1643
 113   1.0000       0.011375         0.3095
 114   1.0000       0.032924         0.8959
 115   1.0000       0.057935         1.5765
 116   0.0000       0.184438         5.0188
 117   0.0000       0.187552         5.1036
 118   0.0000       0.192903         5.2492
 119   0.0000       0.194876         5.3029
 120   0.0000       0.195729         5.3261

MULLIKEN ATOMIC CHARGES AND SPIN POPULATIONS
--------------------------------------------
   0 V :    0.447229    1.199827
   1 S :   -0.250876   -0.024143
   2 S :   -0.252819   -0.024190
   3 S :   -0.251124   -0.024065
   4 S :   -0.253014   -0.024118
   5 O :   -0.505744   -0.139207
   6 C :   -0.121904    0.008867
   7 C :   -0.120174    0.008848
   8 C :   -0.130710    0.008917
   9 C :   -0.130504    0.008877
  10 S :   -0.042468   -0.000154
  11 S :   -0.042560   -0.000190
  12 S :   -0.039731   -0.000156
  13 S :   -0.039514   -0.000188
  14 C :   -0.341029    0.000290
  15 C :   -0.332939    0.000292
  16 C :   -0.340638    0.000276
  17 C :   -0.333828    0.000307
  18 C :   -0.082652    0.000093
  19 H :    0.153621   -0.000105
  20 H :    0.096185    0.000016
  21 H :    0.043482    0.000040
  22 H :    0.084991    0.000024
  23 H :    0.096302    0.000017
  24 H :    0.153945   -0.000106
  25 C :   -0.083335    0.000046
  26 H :    0.077734    0.000017
  27 H :    0.160739   -0.000102
  28 H :    0.098444    0.000011
  29 H :    0.044561    0.000047
  30 H :    0.160530   -0.000101
  31 H :    0.077798    0.000015
Sum of atomic charges         :   -2.0000000

LOEWDIN ATOMIC CHARGES AND SPIN POPULATIONS
-------------------------------------------
   0 V :   -0.243122    1.153699
   1 S :    0.090563   -0.016316
   2 S :    0.088934   -0.016372
   3 S :    0.090369   -0.016237
   4 S :    0.088684   -0.016353
   5 O :   -0.350262   -0.124631
   6 C :   -0.554487    0.009983
   7 C :   -0.553951    0.009933
   8 C :   -0.556473    0.009944
   9 C :   -0.556879    0.009973
  10 S :    0.335944   -0.001024
  11 S :    0.335785   -0.001045
  12 S :    0.333732   -0.001033
  13 S :    0.333664   -0.001049
  14 C :   -0.295801    0.000163
  15 C :   -0.308506    0.000167
  16 C :   -0.295888    0.000155
  17 C :   -0.308699    0.000177
  18 C :   -0.183325   -0.000037
  19 H :    0.068043   -0.000026
  20 H :    0.046924   -0.000001
  21 H :    0.045956    0.000018
  22 H :    0.056501    0.000012
  23 H :    0.046943    0.000000
  24 H :    0.068167   -0.000026
  25 C :   -0.182471   -0.000042
  26 H :    0.048870   -0.000003
  27 H :    0.077394   -0.000025
  28 H :    0.062239    0.000008
  29 H :    0.044935    0.000019
  30 H :    0.077397   -0.000025
  31 H :    0.048819   -0.000004

  Mayer bond orders larger than 0.100000
B(  0-V ,  1-S ) :   0.7871 B(  0-V ,  2-S ) :   0.7912 B(  0-V ,  3-S ) :   0.7892
B(  0-V ,  4-S ) :   0.7886 B(  0-V ,  5-O ) :   2.1090 B(  1-S ,  8-C ) :   1.1373
B(  2-S ,  6-C ) :   1.1359 B(  3-S ,  9-C ) :   1.1361 B(  4-S ,  7-C ) :   1.1371
B(  6-C ,  7-C ) :   1.5122 B(  6-C , 10-S ) :   0.9600 B(  7-C , 11-S ) :   0.9596
B(  8-C ,  9-C ) :   1.4971 B(  8-C , 13-S ) :   0.9728 B(  9-C , 12-S ) :   0.9726
B( 10-S , 16-C ) :   1.0040 B( 11-S , 14-C ) :   1.0034 B( 12-S , 15-C ) :   1.0048
B( 13-S , 17-C ) :   1.0054 B( 14-C , 18-C ) :   0.8726 B( 14-C , 23-H ) :   0.9684
B( 14-C , 24-H ) :   0.9751 B( 15-C , 25-C ) :   0.8619 B( 15-C , 30-H ) :   0.9701
B( 15-C , 31-H ) :   0.9651 B( 16-C , 18-C ) :   0.8726 B( 16-C , 19-H ) :   0.9749
B( 16-C , 20-H ) :   0.9684 B( 17-C , 25-C ) :   0.8615 B( 17-C , 26-H ) :   0.9652
B( 17-C , 27-H ) :   0.9701 B( 18-C , 21-H ) :   0.9559 B( 18-C , 22-H ) :   0.9717
B( 25-C , 28-H ) :   0.9640 B( 25-C , 29-H ) :   0.9663

FINAL SINGLE POINT ENERGY     -4592.688828697897

DIPOLE MOMENT
-------------
                                X             Y             Z
Electronic contribution:      3.33064     -14.13987      22.40198
Nuclear contribution   :     -3.64616      15.76021     -24.97015
                        -----------------------------------------
Total Dipole Moment    :     -0.31553       1.62034      -2.56817
                        -----------------------------------------
Magnitude (a.u.)       :      3.05296
Magnitude (Debye)      :      7.76000

Rotational constants in cm-1:     0.012786     0.002547     0.002430
Rotational constants in MHz :   383.322512    76.370729    72.861336

                             ****ORCA TERMINATED NORMALLY****
TOTAL RUN TIME: 0 days 0 hours 27 minutes 41 seconds 549 msec
