                         Program Version 5.0.4 -  RELEASE  -
|  1> ! nofrozencore ReducedPop printbasis
|  2> ! B3LYP TZVP
|  3>
|  4> %basis
|  5> newgto V "CP(PPP)" end
|  6> end
|  7>
|  8> %pal
|  9> nprocs 8
| 10> end
| 11>
| 12> % sym SymThresh 1e-2 end
| 13> * xyz -2 2
| 14> V 1.0984109786577323 0.17840157313179514 0.07602257180116663
| 15> S 0.12731282185099108 2.045113566626813 -1.1800897046349028
| 16> S 0.03351645467173534 1.1778326564644892 2.0419304457052503
| 17> S 0.6772973262059293 -1.0640816462840181 -1.992293182602599
| 18> S 0.6140986092297106 -1.926939780316474 1.2338246101521213
| 19> O 2.670311500477866 0.4381598729022041 0.18091629412513258
| 20> C -0.0027034278781594857 -0.13517242459403453 3.2256006186603567
| 21> C 0.2380014828344819 -1.4297793779272026 2.8881628831324053
| 22> C 0.16581026999186338 1.4942329028566945 -2.8594132227956632
| 23> C 0.3952230951915961 0.19776020201345695 -3.198418218033372
| 24> S -0.4130652490946254 0.37341822066412433 4.907204195889187
| 25> S 0.16682219044391497 -2.7773753714497644 4.0857235594080255
| 26> S 0.3982940912742441 -0.37616283777747733 -4.908843692014976
| 27> S -0.15894050473545973 2.77851753100267 -4.08473124547139
| 28> C -1.624872489946939 -2.8432584891350623 4.530621289141704
| 29> C -1.3673942136630046 -0.18012597616931525 -5.415433532224634
| 30> C -2.0781517463196373 -0.3797025241092427 5.1751496351691815
| 31> C -1.8035403784192015 2.292138485443998 -4.770594089996341
| 32> C -2.0832081186704583 -1.8470934975600033 5.590632148967148
| 33> H -2.6482663323733817 -0.22853549243462973 4.263439996887643
| 34> H -2.5302859376504987 0.22044406440329353 5.951147867659019
| 35> H -3.247034829322355 -2.142186061194466 5.90016760611516
| 36> H -1.4666183887223136 -1.9747371132963891 6.512325098953323
| 37> H -1.784044097417002 -3.8512066001975 4.884742611739002
| 38> H -2.187428846568143 -2.721840838446715 3.609777545333125
| 39> C -1.7527372369943572 1.2225500400895235 -5.84466909370817
| 40> H -2.203805303821542 3.1743274522654885 -5.153296266963093
| 41> H -2.411730420332951 1.9881749131497972 -3.945127878177771
| 42> H -1.0679231100414073 1.5749439058082542 -6.732992453813306
| 43> H -3.249450451407001 1.1192782580420235 -6.460299627900803
| 44> H -1.9687608607292055 -0.5169415671247554 -4.597657962878317
| 45> H -1.4952709989682407 -0.8504440263965193 -6.2023690658654775
| 46> *
| 47>
| 48> % eprnmr
| 49> gtensor true
| 50> Nuclei = all H {aiso,adip,aorb,fgrad,rho}
| 51> Nuclei = all V {aiso,adip,aorb,fgrad,rho}
| 52> end
| 53>
| 54>                          ****END OF INPUT****

CARTESIAN COORDINATES (ANGSTROEM)
---------------------------------
  V      1.099574    0.178576    0.076183
  S      0.128476    2.045288   -1.179929
  S      0.034679    1.178007    2.042091
  S      0.678460   -1.063907   -1.992132
  S      0.615261   -1.926765    1.233985
  O      2.671474    0.438334    0.181077
  C     -0.001541   -0.134998    3.225761
  C      0.239164   -1.429605    2.888324
  C      0.166973    1.494407   -2.859252
  C      0.396386    0.197935   -3.198257
  S     -0.411902    0.373593    4.907365
  S      0.167985   -2.777201    4.085884
  S      0.399457   -0.375988   -4.908683
  S     -0.157778    2.778692   -4.084570
  C     -1.623710   -2.843084    4.530782
  C     -1.366231   -0.179952   -5.415273
  C     -2.076989   -0.379528    5.175310
  C     -1.802378    2.292313   -4.770433
  C     -2.082045   -1.846919    5.590793
  H     -2.647104   -0.228361    4.263601
  H     -2.529123    0.220618    5.951309
  H     -3.245872   -2.142012    5.900328
  H     -1.465456   -1.974563    6.512486
  H     -1.782881   -3.851032    4.884903
  H     -2.186266   -2.721666    3.609938
  C     -1.751574    1.222724   -5.844508
  H     -2.202643    3.174502   -5.153135
  H     -2.410568    1.988349   -3.944967
  H     -1.066760    1.575118   -6.732832
  H     -3.248288    1.119453   -6.460139
  H     -1.967598   -0.516767   -4.597497
  H     -1.494108   -0.850270   -6.202208

 Total Charge           Charge          ....   -2
 Multiplicity           Mult            ....    2
 Number of Electrons    NEL             ....  233
 Basis Dimension        Dim             ....  517

ORBITAL ENERGIES
----------------
                 SPIN UP ORBITALS
  NO   OCC          E(Eh)            E(eV)
   0   1.0000    -196.643776     -5350.9492
   1   1.0000     -88.684313     -2413.2228
   2   1.0000     -88.684306     -2413.2227
   3   1.0000     -88.679458     -2413.0907
   4   1.0000     -88.679412     -2413.0895
   5   1.0000     -88.616588     -2411.3799
   6   1.0000     -88.616474     -2411.3769
   7   1.0000     -88.615053     -2411.3382
   8   1.0000     -88.614984     -2411.3363
   9   1.0000     -22.019563      -599.1828
  10   1.0000     -18.860721      -513.2263
  11   1.0000     -18.526385      -504.1286
  12   1.0000     -18.520614      -503.9715
  13   1.0000     -18.520581      -503.9706
  14   1.0000     -10.053940      -273.5816
  15   1.0000     -10.022012      -272.7128
  16   1.0000     -10.016107      -272.5521
  17   1.0000     -10.016090      -272.5517
  18   1.0000     -10.014402      -272.5057
  19   1.0000     -10.014393      -272.5055
  20   1.0000      -9.997311      -272.0407
  21   1.0000      -9.996598      -272.0213
  22   1.0000      -9.994713      -271.9700
  23   1.0000      -9.993992      -271.9504
  24   1.0000      -7.737921      -210.5595
  25   1.0000      -7.737909      -210.5592
  26   1.0000      -7.733119      -210.4289
  27   1.0000      -7.733070      -210.4275
  28   1.0000      -7.670974      -208.7378
  29   1.0000      -7.670894      -208.7356
  30   1.0000      -7.669457      -208.6965
  31   1.0000      -7.669445      -208.6962
  32   1.0000      -5.703161      -155.1909
  33   1.0000      -5.703157      -155.1908
  34   1.0000      -5.699211      -155.0834
  35   1.0000      -5.699196      -155.0830
  36   1.0000      -5.698356      -155.0602
  37   1.0000      -5.698309      -155.0589
  38   1.0000      -5.694458      -154.9541
  39   1.0000      -5.694412      -154.9528
  40   1.0000      -5.692706      -154.9064
  41   1.0000      -5.692700      -154.9062
  42   1.0000      -5.687877      -154.7750
  43   1.0000      -5.687829      -154.7737
  44   1.0000      -5.635866      -153.3597
  45   1.0000      -5.635779      -153.3573
  46   1.0000      -5.634301      -153.3171
  47   1.0000      -5.634294      -153.3169
  48   1.0000      -5.629400      -153.1838
  49   1.0000      -5.629311      -153.1813
  50   1.0000      -5.628941      -153.1713
  51   1.0000      -5.628852      -153.1689
  52   1.0000      -5.627904      -153.1431
  53   1.0000      -5.627882      -153.1425
  54   1.0000      -5.627434      -153.1303
  55   1.0000      -5.627413      -153.1297
  56   1.0000      -2.413249       -65.6678
  57   1.0000      -1.454590       -39.5814
  58   1.0000      -1.443041       -39.2672
  59   1.0000      -1.441966       -39.2379
  60   1.0000      -0.649673       -17.6785
  61   1.0000      -0.645519       -17.5655
  62   1.0000      -0.621672       -16.9165
  63   1.0000      -0.595587       -16.2067
  64   1.0000      -0.594482       -16.1767
  65   1.0000      -0.586731       -15.9658
  66   1.0000      -0.579647       -15.7730
  67   1.0000      -0.495998       -13.4968
  68   1.0000      -0.490739       -13.3537
  69   1.0000      -0.489713       -13.3258
  70   1.0000      -0.486374       -13.2349
  71   1.0000      -0.429729       -11.6935
  72   1.0000      -0.424651       -11.5553
  73   1.0000      -0.412168       -11.2157
  74   1.0000      -0.406857       -11.0711
  75   1.0000      -0.379076       -10.3152
  76   1.0000      -0.375837       -10.2270
  77   1.0000      -0.304422        -8.2838
  78   1.0000      -0.296751        -8.0750
  79   1.0000      -0.268952        -7.3186
  80   1.0000      -0.267239        -7.2719
  81   1.0000      -0.261126        -7.1056
  82   1.0000      -0.252039        -6.8583
  83   1.0000      -0.249757        -6.7962
  84   1.0000      -0.243768        -6.6333
  85   1.0000      -0.209355        -5.6968
  86   1.0000      -0.197690        -5.3794
  87   1.0000      -0.193838        -5.2746
  88   1.0000      -0.190929        -5.1954
  89   1.0000      -0.185503        -5.0478
  90   1.0000      -0.182485        -4.9657
  91   1.0000      -0.167242        -4.5509
  92   1.0000      -0.154454        -4.2029
  93   1.0000      -0.153936        -4.1888
  94   1.0000      -0.147442        -4.0121
  95   1.0000      -0.144524        -3.9327
  96   1.0000      -0.138306        -3.7635
  97   1.0000      -0.101240        -2.7549
  98   1.0000      -0.100208        -2.7268
  99   1.0000      -0.091128        -2.4797
 100   1.0000      -0.085955        -2.3389
 101   1.0000      -0.084363        -2.2956
 102   1.0000      -0.083695        -2.2775
 103   1.0000      -0.072526        -1.9735
 104   1.0000      -0.054224        -1.4755
 105   1.0000      -0.043480        -1.1831
 106   1.0000      -0.042642        -1.1604
 107   1.0000      -0.040059        -1.0901
 108   1.0000      -0.036257        -0.9866
 109   1.0000      -0.017372        -0.4727
 110   1.0000      -0.008552        -0.2327
 111   1.0000      -0.007283        -0.1982
 112   1.0000       0.002566         0.0698
 113   1.0000       0.006683         0.1819
 114   1.0000       0.012561         0.3418
 115   1.0000       0.029889         0.8133
 116   1.0000       0.056133         1.5275
 117   0.0000       0.144507         3.9322
 118   0.0000       0.185271         5.0415
 119   0.0000       0.189258         5.1500
 120   0.0000       0.192934         5.2500
 121   0.0000       0.206291         5.6135

                 SPIN DOWN ORBITALS
  NO   OCC          E(Eh)            E(eV)
   0   1.0000    -196.643918     -5350.9530
   1   1.0000     -88.684327     -2413.2232
   2   1.0000     -88.684320     -2413.2230
   3   1.0000     -88.679471     -2413.0911
   4   1.0000     -88.679426     -2413.0899
   5   1.0000     -88.616745     -2411.3842
   6   1.0000     -88.616631     -2411.3811
   7   1.0000     -88.615214     -2411.3426
   8   1.0000     -88.615145     -2411.3407
   9   1.0000     -22.004896      -598.7837
  10   1.0000     -18.864314      -513.3241
  11   1.0000     -18.521252      -503.9889
  12   1.0000     -18.505136      -503.5503
  13   1.0000     -18.504443      -503.5315
  14   1.0000     -10.053940      -273.5816
  15   1.0000     -10.022011      -272.7128
  16   1.0000     -10.016103      -272.5520
  17   1.0000     -10.016086      -272.5516
  18   1.0000     -10.014399      -272.5056
  19   1.0000     -10.014389      -272.5054
  20   1.0000      -9.997057      -272.0337
  21   1.0000      -9.996346      -272.0144
  22   1.0000      -9.994458      -271.9630
  23   1.0000      -9.993739      -271.9435
  24   1.0000      -7.737936      -210.5599
  25   1.0000      -7.737923      -210.5596
  26   1.0000      -7.733133      -210.4293
  27   1.0000      -7.733084      -210.4279
  28   1.0000      -7.671119      -208.7418
  29   1.0000      -7.671040      -208.7396
  30   1.0000      -7.669606      -208.7006
  31   1.0000      -7.669594      -208.7003
  32   1.0000      -5.703178      -155.1914
  33   1.0000      -5.703174      -155.1913
  34   1.0000      -5.699232      -155.0840
  35   1.0000      -5.699217      -155.0836
  36   1.0000      -5.698373      -155.0606
  37   1.0000      -5.698325      -155.0593
  38   1.0000      -5.694478      -154.9546
  39   1.0000      -5.694432      -154.9534
  40   1.0000      -5.692725      -154.9069
  41   1.0000      -5.692718      -154.9067
  42   1.0000      -5.687894      -154.7755
  43   1.0000      -5.687846      -154.7742
  44   1.0000      -5.636035      -153.3643
  45   1.0000      -5.635948      -153.3620
  46   1.0000      -5.634473      -153.3218
  47   1.0000      -5.634466      -153.3216
  48   1.0000      -5.629784      -153.1942
  49   1.0000      -5.629696      -153.1918
  50   1.0000      -5.629073      -153.1749
  51   1.0000      -5.628984      -153.1724
  52   1.0000      -5.628298      -153.1538
  53   1.0000      -5.628276      -153.1532
  54   1.0000      -5.627569      -153.1339
  55   1.0000      -5.627550      -153.1334
  56   1.0000      -2.369068       -64.4656
  57   1.0000      -1.435748       -39.0687
  58   1.0000      -1.381658       -37.5968
  59   1.0000      -1.380986       -37.5785
  60   1.0000      -0.649619       -17.6770
  61   1.0000      -0.645465       -17.5640
  62   1.0000      -0.629374       -17.1261
  63   1.0000      -0.595392       -16.2014
  64   1.0000      -0.594281       -16.1712
  65   1.0000      -0.586729       -15.9657
  66   1.0000      -0.579643       -15.7729
  67   1.0000      -0.495988       -13.4965
  68   1.0000      -0.490750       -13.3540
  69   1.0000      -0.489750       -13.3268
  70   1.0000      -0.486427       -13.2364
  71   1.0000      -0.429993       -11.7007
  72   1.0000      -0.424954       -11.5636
  73   1.0000      -0.412167       -11.2156
  74   1.0000      -0.406943       -11.0735
  75   1.0000      -0.379040       -10.3142
  76   1.0000      -0.375857       -10.2276
  77   1.0000      -0.304411        -8.2834
  78   1.0000      -0.296737        -8.0746
  79   1.0000      -0.268919        -7.3176
  80   1.0000      -0.267111        -7.2685
  81   1.0000      -0.261057        -7.1037
  82   1.0000      -0.251966        -6.8563
  83   1.0000      -0.249632        -6.7928
  84   1.0000      -0.243679        -6.6309
  85   1.0000      -0.209322        -5.6959
  86   1.0000      -0.197657        -5.3785
  87   1.0000      -0.193333        -5.2609
  88   1.0000      -0.190891        -5.1944
  89   1.0000      -0.184057        -5.0084
  90   1.0000      -0.181874        -4.9490
  91   1.0000      -0.167108        -4.5472
  92   1.0000      -0.154158        -4.1949
  93   1.0000      -0.153259        -4.1704
  94   1.0000      -0.147237        -4.0065
  95   1.0000      -0.144328        -3.9274
  96   1.0000      -0.138090        -3.7576
  97   1.0000      -0.100751        -2.7416
  98   1.0000      -0.098712        -2.6861
  99   1.0000      -0.091420        -2.4877
 100   1.0000      -0.085679        -2.3315
 101   1.0000      -0.085396        -2.3238
 102   1.0000      -0.084353        -2.2954
 103   1.0000      -0.073687        -2.0051
 104   1.0000      -0.050354        -1.3702
 105   1.0000      -0.043355        -1.1798
 106   1.0000      -0.041903        -1.1403
 107   1.0000      -0.039216        -1.0671
 108   1.0000      -0.036171        -0.9843
 109   1.0000      -0.016466        -0.4481
 110   1.0000      -0.009525        -0.2592
 111   1.0000      -0.006564        -0.1786
 112   1.0000       0.003352         0.0912
 113   1.0000       0.007612         0.2071
 114   1.0000       0.030144         0.8203
 115   1.0000       0.055342         1.5059
 116   0.0000       0.144447         3.9306
 117   0.0000       0.181683         4.9439
 118   0.0000       0.186576         5.0770
 119   0.0000       0.189490         5.1563
 120   0.0000       0.193631         5.2690

MULLIKEN ATOMIC CHARGES AND SPIN POPULATIONS
--------------------------------------------
   0 V :    0.447692    1.199213
   1 S :   -0.249377   -0.023630
   2 S :   -0.252282   -0.024368
   3 S :   -0.249600   -0.023557
   4 S :   -0.252547   -0.024296
   5 O :   -0.504532   -0.139262
   6 C :   -0.117255    0.008924
   7 C :   -0.115731    0.008923
   8 C :   -0.117890    0.008870
   9 C :   -0.118250    0.008831
  10 S :   -0.043498   -0.000190
  11 S :   -0.043406   -0.000224
  12 S :   -0.038391   -0.000350
  13 S :   -0.038530   -0.000376
  14 C :   -0.337103    0.000292
  15 C :   -0.332308    0.000339
  16 C :   -0.336393    0.000276
  17 C :   -0.331557    0.000359
  18 C :   -0.071432    0.000108
  19 H :    0.149568   -0.000100
  20 H :    0.109988    0.000019
  21 H :    0.005949    0.000084
  22 H :    0.079585    0.000024
  23 H :    0.110011    0.000020
  24 H :    0.149798   -0.000102
  25 C :   -0.037989   -0.000055
  26 H :    0.130996    0.000018
  27 H :    0.156044   -0.000106
  28 H :    0.074895    0.000033
  29 H :   -0.113736    0.000369
  30 H :    0.156264   -0.000102
  31 H :    0.131015    0.000017
Sum of atomic charges         :   -2.0000000

LOEWDIN ATOMIC CHARGES AND SPIN POPULATIONS
-------------------------------------------
   0 V :   -0.241721    1.153261
   1 S :    0.090684   -0.015957
   2 S :    0.089168   -0.016513
   3 S :    0.090448   -0.015887
   4 S :    0.088886   -0.016486
   5 O :   -0.349341   -0.124682
   6 C :   -0.552945    0.010019
   7 C :   -0.552424    0.009977
   8 C :   -0.552261    0.009915
   9 C :   -0.552612    0.009938
  10 S :    0.338916   -0.001037
  11 S :    0.338758   -0.001056
  12 S :    0.347864   -0.001125
  13 S :    0.347830   -0.001136
  14 C :   -0.295809    0.000166
  15 C :   -0.295909    0.000171
  16 C :   -0.295903    0.000158
  17 C :   -0.295957    0.000181
  18 C :   -0.186473   -0.000044
  19 H :    0.065839   -0.000026
  20 H :    0.046849    0.000004
  21 H :    0.048740    0.000044
  22 H :    0.055314    0.000014
  23 H :    0.046856    0.000005
  24 H :    0.065969   -0.000026
  25 C :   -0.154059   -0.000113
  26 H :    0.044814    0.000005
  27 H :    0.066389   -0.000025
  28 H :    0.063959    0.000016
  29 H :   -0.023148    0.000260
  30 H :    0.066464   -0.000025
  31 H :    0.044813    0.000004

  Mayer bond orders larger than 0.100000
B(  0-V ,  1-S ) :   0.7841 B(  0-V ,  2-S ) :   0.7931 B(  0-V ,  3-S ) :   0.7862
B(  0-V ,  4-S ) :   0.7906 B(  0-V ,  5-O ) :   2.1099 B(  1-S ,  8-C ) :   1.1426
B(  2-S ,  6-C ) :   1.1366 B(  3-S ,  9-C ) :   1.1415 B(  4-S ,  7-C ) :   1.1378
B(  6-C ,  7-C ) :   1.5187 B(  6-C , 10-S ) :   0.9532 B(  7-C , 11-S ) :   0.9528
B(  8-C ,  9-C ) :   1.5164 B(  8-C , 13-S ) :   0.9477 B(  9-C , 12-S ) :   0.9482
B( 10-S , 16-C ) :   0.9979 B( 11-S , 14-C ) :   0.9979 B( 12-S , 15-C ) :   0.9703
B( 13-S , 17-C ) :   0.9703 B( 14-C , 18-C ) :   0.8844 B( 14-C , 23-H ) :   0.9695
B( 14-C , 24-H ) :   0.9750 B( 15-C , 25-C ) :   0.9023 B( 15-C , 30-H ) :   0.9742
B( 15-C , 31-H ) :   0.9673 B( 16-C , 18-C ) :   0.8842 B( 16-C , 19-H ) :   0.9749
B( 16-C , 20-H ) :   0.9695 B( 17-C , 25-C ) :   0.9022 B( 17-C , 26-H ) :   0.9675
B( 17-C , 27-H ) :   0.9741 B( 18-C , 21-H ) :   0.9328 B( 18-C , 22-H ) :   0.9678
B( 25-C , 28-H ) :   0.9548 B( 25-C , 29-H ) :   0.8480

FINAL SINGLE POINT ENERGY     -4592.649438670184

DIPOLE MOMENT
-------------
                                X             Y             Z
Electronic contribution:     27.26506       4.27945       2.39190
Nuclear contribution   :    -29.71053      -4.77244      -2.19910
                        -----------------------------------------
Total Dipole Moment    :     -2.44547      -0.49300       0.19280
                        -----------------------------------------
Magnitude (a.u.)       :      2.50211
Magnitude (Debye)      :      6.35985

Rotational constants in cm-1:     0.012759     0.002548     0.002431
Rotational constants in MHz :   382.495097    76.380568    72.884178

                             ****ORCA TERMINATED NORMALLY****
TOTAL RUN TIME: 0 days 0 hours 27 minutes 52 seconds 191 msec
