                         Program Version 5.0.4 -  RELEASE  -
|  1> ! nofrozencore ReducedPop printbasis
|  2> ! B3LYP TZVP
|  3>
|  4> %basis
|  5> newgto V "CP(PPP)" end
|  6> end
|  7>
|  8> %pal
|  9> nprocs 8
| 10> end
| 11>
| 12> % sym SymThresh 1e-2 end
| 13> * xyz -2 2
| 14> V -0.29932976131812833 0.28963059295809035 -1.0347175712632781
| 15> S 1.3510120737902418 1.924011655884325 -0.2533326229905023
| 16> S 1.5830644575857018 -1.2680426163416576 -1.2016056161204849
| 17> S -1.778119503592346 1.4544049753034773 0.5323721058338796
| 18> S -1.554285114383789 -1.7315793893572937 -0.44537746443998816
| 19> O -0.7250217540138826 0.7093932440375245 -2.515205336343248
| 20> C 0.8193379562763468 -2.8620590256719254 -1.2489943981222518
| 21> C -0.48832833300436007 -3.0552695776373726 -0.9322949583547752
| 22> C 0.3775522666704515 3.160536569454975 0.5519395380907038
| 23> C -0.9272333910888682 2.96503672857863 0.8794886141341313
| 24> S 1.9177273164476372 -4.213356200144736 -1.720643812384901
| 25> S -1.2625223212032346 -4.684922282193941 -0.944599725324598
| 26> S -1.9141915277320516 4.20984536620553 1.73480886082146
| 27> S 1.2603583872530397 4.686608109091454 0.9369150513216997
| 28> C -0.4164886097635161 -5.55624743990333 0.4470223257119775
| 29> C -1.1142349820797182 4.252899615313848 3.4032870469547714
| 30> C 2.069020045351929 -5.1896929332466515 -0.1603474518246481
| 31> C 1.356871178622829 4.6902325774359905 2.7767754020690685
| 32> C 0.9411925867307396 -6.180181928765198 0.12635897326333204
| 33> H 2.1812344219394286 -4.474552357054652 0.657381836402729
| 34> H 3.013788862666294 -5.732909231278726 -0.2621457735187971
| 35> H 1.2429186533775851 -6.794444433995232 0.9902568452837152
| 36> H 0.8332469193131311 -6.859907882112588 -0.7257953268565167
| 37> H -1.1157866705305624 -6.3418548306700675 0.750236670508072
| 38> H -0.3365042263006594 -4.843998484428469 1.2709938547079955
| 39> C 0.11689752602772781 5.15997590570997 3.525163469117874
| 40> H 2.0763164048433356 5.197189965790844 2.9890353445522204
| 41> H 1.6739796532276434 3.328421096973181 3.1585815995338313
| 42> H -0.11966678589940989 6.171727336211556 3.183262107408924
| 43> H 0.37308822461165597 5.23463648694122 4.594791874504198
| 44> H -0.9782941508558193 3.556096968168507 3.620742444106463
| 45> H -2.0306526357033734 4.72620334229283 4.1632706635227335
| 46> *
| 47>
| 48> % eprnmr
| 49> gtensor true
| 50> Nuclei = all H {aiso,adip,aorb,fgrad,rho}
| 51> Nuclei = all V {aiso,adip,aorb,fgrad,rho}
| 52> end
| 53>
| 54>                          ****END OF INPUT****

CARTESIAN COORDINATES (ANGSTROEM)
---------------------------------
  V     -0.299636    0.289861   -1.035841
  S      1.350706    1.924242   -0.254456
  S      1.582759   -1.267812   -1.202729
  S     -1.778425    1.454636    0.531249
  S     -1.554591   -1.731349   -0.446501
  O     -0.725328    0.709624   -2.516329
  C      0.819032   -2.861828   -1.250118
  C     -0.488634   -3.055039   -0.933418
  C      0.377246    3.160767    0.550816
  C     -0.927539    2.965267    0.878365
  S      1.917421   -4.213126   -1.721767
  S     -1.262828   -4.684692   -0.945723
  S     -1.914497    4.210076    1.733686
  S      1.260052    4.686839    0.935792
  C     -0.416795   -5.556017    0.445899
  C     -1.114541    4.253130    3.402164
  C      2.068714   -5.189462   -0.161471
  C      1.356565    4.690463    2.775652
  C      0.940887   -6.179951    0.125236
  H      2.180928   -4.474322    0.656259
  H      3.013483   -5.732679   -0.263269
  H      1.242613   -6.794214    0.989134
  H      0.832941   -6.859677   -0.726919
  H     -1.116093   -6.341624    0.749113
  H     -0.336810   -4.843768    1.269871
  C      0.116592    5.160206    3.524040
  H      2.076010    5.197421    2.987912
  H      1.673674    3.328652    3.157458
  H     -0.119973    6.171958    3.182139
  H      0.372782    5.234867    4.593669
  H     -0.978600    3.556328    3.619619
  H     -2.030959    4.726434    4.162147

 Total Charge           Charge          ....   -2
 Multiplicity           Mult            ....    2
 Number of Electrons    NEL             ....  233
 Basis Dimension        Dim             ....  517

ORBITAL ENERGIES
----------------
                 SPIN UP ORBITALS
  NO   OCC          E(Eh)            E(eV)
   0   1.0000    -196.640615     -5350.8632
   1   1.0000     -88.680272     -2413.1129
   2   1.0000     -88.677823     -2413.0463
   3   1.0000     -88.676723     -2413.0163
   4   1.0000     -88.676652     -2413.0144
   5   1.0000     -88.613202     -2411.2878
   6   1.0000     -88.612437     -2411.2670
   7   1.0000     -88.612303     -2411.2633
   8   1.0000     -88.612295     -2411.2631
   9   1.0000     -22.016441      -599.0978
  10   1.0000     -18.857647      -513.1427
  11   1.0000     -18.523266      -504.0437
  12   1.0000     -18.517491      -503.8865
  13   1.0000     -18.517454      -503.8855
  14   1.0000     -10.024032      -272.7678
  15   1.0000     -10.015493      -272.5354
  16   1.0000     -10.015471      -272.5348
  17   1.0000     -10.007702      -272.3234
  18   1.0000     -10.004754      -272.2432
  19   1.0000     -10.002758      -272.1889
  20   1.0000      -9.993417      -271.9347
  21   1.0000      -9.992388      -271.9067
  22   1.0000      -9.992059      -271.8977
  23   1.0000      -9.991340      -271.8782
  24   1.0000      -7.733807      -210.4476
  25   1.0000      -7.731346      -210.3806
  26   1.0000      -7.730349      -210.3535
  27   1.0000      -7.730292      -210.3519
  28   1.0000      -7.667604      -208.6461
  29   1.0000      -7.666871      -208.6262
  30   1.0000      -7.666712      -208.6218
  31   1.0000      -7.666691      -208.6213
  32   1.0000      -5.699067      -155.0795
  33   1.0000      -5.696605      -155.0125
  34   1.0000      -5.695593      -154.9850
  35   1.0000      -5.695538      -154.9835
  36   1.0000      -5.695083      -154.9711
  37   1.0000      -5.692783      -154.9085
  38   1.0000      -5.691702      -154.8791
  39   1.0000      -5.691648      -154.8776
  40   1.0000      -5.688663      -154.7964
  41   1.0000      -5.686001      -154.7240
  42   1.0000      -5.685107      -154.6996
  43   1.0000      -5.685042      -154.6979
  44   1.0000      -5.632486      -153.2677
  45   1.0000      -5.631717      -153.2468
  46   1.0000      -5.631551      -153.2423
  47   1.0000      -5.631547      -153.2422
  48   1.0000      -5.626026      -153.0920
  49   1.0000      -5.625554      -153.0791
  50   1.0000      -5.625307      -153.0724
  51   1.0000      -5.625168      -153.0686
  52   1.0000      -5.625142      -153.0679
  53   1.0000      -5.624855      -153.0601
  54   1.0000      -5.624698      -153.0558
  55   1.0000      -5.624680      -153.0553
  56   1.0000      -2.410123       -65.5828
  57   1.0000      -1.451477       -39.4967
  58   1.0000      -1.439908       -39.1819
  59   1.0000      -1.438827       -39.1525
  60   1.0000      -0.652873       -17.7656
  61   1.0000      -0.643899       -17.5214
  62   1.0000      -0.618714       -16.8361
  63   1.0000      -0.597566       -16.2606
  64   1.0000      -0.593831       -16.1590
  65   1.0000      -0.588292       -16.0082
  66   1.0000      -0.575915       -15.6714
  67   1.0000      -0.500141       -13.6095
  68   1.0000      -0.492669       -13.4062
  69   1.0000      -0.490372       -13.3437
  70   1.0000      -0.487202       -13.2574
  71   1.0000      -0.436200       -11.8696
  72   1.0000      -0.423395       -11.5212
  73   1.0000      -0.421236       -11.4624
  74   1.0000      -0.410221       -11.1627
  75   1.0000      -0.385678       -10.4948
  76   1.0000      -0.374655       -10.1949
  77   1.0000      -0.294704        -8.0193
  78   1.0000      -0.292933        -7.9711
  79   1.0000      -0.283824        -7.7232
  80   1.0000      -0.277789        -7.5590
  81   1.0000      -0.260226        -7.0811
  82   1.0000      -0.255326        -6.9478
  83   1.0000      -0.244276        -6.6471
  84   1.0000      -0.240365        -6.5407
  85   1.0000      -0.199722        -5.4347
  86   1.0000      -0.194456        -5.2914
  87   1.0000      -0.192285        -5.2323
  88   1.0000      -0.186740        -5.0815
  89   1.0000      -0.184705        -5.0261
  90   1.0000      -0.179356        -4.8805
  91   1.0000      -0.177522        -4.8306
  92   1.0000      -0.154767        -4.2114
  93   1.0000      -0.151249        -4.1157
  94   1.0000      -0.146325        -3.9817
  95   1.0000      -0.142934        -3.8894
  96   1.0000      -0.130635        -3.5548
  97   1.0000      -0.098085        -2.6690
  98   1.0000      -0.096669        -2.6305
  99   1.0000      -0.090259        -2.4561
 100   1.0000      -0.084171        -2.2904
 101   1.0000      -0.082119        -2.2346
 102   1.0000      -0.080708        -2.1962
 103   1.0000      -0.070377        -1.9151
 104   1.0000      -0.050676        -1.3790
 105   1.0000      -0.038917        -1.0590
 106   1.0000      -0.038694        -1.0529
 107   1.0000      -0.036468        -0.9924
 108   1.0000      -0.032671        -0.8890
 109   1.0000      -0.013806        -0.3757
 110   1.0000      -0.004923        -0.1340
 111   1.0000      -0.004062        -0.1105
 112   1.0000       0.005729         0.1559
 113   1.0000       0.009965         0.2712
 114   1.0000       0.015735         0.4282
 115   1.0000       0.033079         0.9001
 116   1.0000       0.059286         1.6133
 117   0.0000       0.184588         5.0229
 118   0.0000       0.187009         5.0888
 119   0.0000       0.192895         5.2490
 120   0.0000       0.196452         5.3457
 121   0.0000       0.206239         5.6120

                 SPIN DOWN ORBITALS
  NO   OCC          E(Eh)            E(eV)
   0   1.0000    -196.640756     -5350.8670
   1   1.0000     -88.680285     -2413.1132
   2   1.0000     -88.677837     -2413.0466
   3   1.0000     -88.676736     -2413.0167
   4   1.0000     -88.676665     -2413.0147
   5   1.0000     -88.613359     -2411.2921
   6   1.0000     -88.612598     -2411.2714
   7   1.0000     -88.612463     -2411.2677
   8   1.0000     -88.612455     -2411.2675
   9   1.0000     -22.001771      -598.6986
  10   1.0000     -18.861226      -513.2401
  11   1.0000     -18.518134      -503.9041
  12   1.0000     -18.502001      -503.4650
  13   1.0000     -18.501316      -503.4464
  14   1.0000     -10.024028      -272.7677
  15   1.0000     -10.015489      -272.5353
  16   1.0000     -10.015467      -272.5347
  17   1.0000     -10.007702      -272.3234
  18   1.0000     -10.004754      -272.2432
  19   1.0000     -10.002754      -272.1888
  20   1.0000      -9.993163      -271.9278
  21   1.0000      -9.992135      -271.8998
  22   1.0000      -9.991804      -271.8908
  23   1.0000      -9.991087      -271.8713
  24   1.0000      -7.733821      -210.4480
  25   1.0000      -7.731360      -210.3810
  26   1.0000      -7.730363      -210.3539
  27   1.0000      -7.730306      -210.3523
  28   1.0000      -7.667750      -208.6501
  29   1.0000      -7.667020      -208.6302
  30   1.0000      -7.666861      -208.6259
  31   1.0000      -7.666840      -208.6253
  32   1.0000      -5.699083      -155.0799
  33   1.0000      -5.696622      -155.0130
  34   1.0000      -5.695610      -154.9854
  35   1.0000      -5.695555      -154.9839
  36   1.0000      -5.695103      -154.9716
  37   1.0000      -5.692804      -154.9091
  38   1.0000      -5.691723      -154.8796
  39   1.0000      -5.691668      -154.8782
  40   1.0000      -5.688678      -154.7968
  41   1.0000      -5.686019      -154.7244
  42   1.0000      -5.685124      -154.7001
  43   1.0000      -5.685059      -154.6983
  44   1.0000      -5.632655      -153.2723
  45   1.0000      -5.631889      -153.2515
  46   1.0000      -5.631723      -153.2470
  47   1.0000      -5.631719      -153.2469
  48   1.0000      -5.626412      -153.1025
  49   1.0000      -5.625699      -153.0831
  50   1.0000      -5.625687      -153.0827
  51   1.0000      -5.625559      -153.0792
  52   1.0000      -5.625534      -153.0786
  53   1.0000      -5.624991      -153.0638
  54   1.0000      -5.624834      -153.0595
  55   1.0000      -5.624816      -153.0590
  56   1.0000      -2.365936       -64.3804
  57   1.0000      -1.432647       -38.9843
  58   1.0000      -1.378493       -37.5107
  59   1.0000      -1.377845       -37.4931
  60   1.0000      -0.652837       -17.7646
  61   1.0000      -0.643849       -17.5200
  62   1.0000      -0.626379       -17.0446
  63   1.0000      -0.597363       -16.2551
  64   1.0000      -0.593633       -16.1536
  65   1.0000      -0.588285       -16.0080
  66   1.0000      -0.575910       -15.6713
  67   1.0000      -0.500117       -13.6089
  68   1.0000      -0.492690       -13.4068
  69   1.0000      -0.490406       -13.3446
  70   1.0000      -0.487215       -13.2578
  71   1.0000      -0.436396       -11.8750
  72   1.0000      -0.423539       -11.5251
  73   1.0000      -0.421508       -11.4698
  74   1.0000      -0.410277       -11.1642
  75   1.0000      -0.385679       -10.4949
  76   1.0000      -0.374662       -10.1951
  77   1.0000      -0.294681        -8.0187
  78   1.0000      -0.292916        -7.9706
  79   1.0000      -0.283803        -7.7227
  80   1.0000      -0.277770        -7.5585
  81   1.0000      -0.260028        -7.0757
  82   1.0000      -0.255284        -6.9466
  83   1.0000      -0.244191        -6.6448
  84   1.0000      -0.240285        -6.5385
  85   1.0000      -0.199635        -5.4323
  86   1.0000      -0.194075        -5.2810
  87   1.0000      -0.192249        -5.2314
  88   1.0000      -0.186018        -5.0618
  89   1.0000      -0.184623        -5.0238
  90   1.0000      -0.178485        -4.8568
  91   1.0000      -0.176865        -4.8127
  92   1.0000      -0.154518        -4.2046
  93   1.0000      -0.150579        -4.0975
  94   1.0000      -0.146089        -3.9753
  95   1.0000      -0.142738        -3.8841
  96   1.0000      -0.130435        -3.5493
  97   1.0000      -0.096739        -2.6324
  98   1.0000      -0.096001        -2.6123
  99   1.0000      -0.090370        -2.4591
 100   1.0000      -0.084162        -2.2902
 101   1.0000      -0.082582        -2.2472
 102   1.0000      -0.081671        -2.2224
 103   1.0000      -0.071693        -1.9509
 104   1.0000      -0.046554        -1.2668
 105   1.0000      -0.039136        -1.0649
 106   1.0000      -0.037876        -1.0307
 107   1.0000      -0.035451        -0.9647
 108   1.0000      -0.032637        -0.8881
 109   1.0000      -0.012900        -0.3510
 110   1.0000      -0.006189        -0.1684
 111   1.0000      -0.003103        -0.0844
 112   1.0000       0.006556         0.1784
 113   1.0000       0.010866         0.2957
 114   1.0000       0.033335         0.9071
 115   1.0000       0.058493         1.5917
 116   0.0000       0.183888         5.0038
 117   0.0000       0.185924         5.0593
 118   0.0000       0.187698         5.1075
 119   0.0000       0.193578         5.2675
 120   0.0000       0.196645         5.3510

MULLIKEN ATOMIC CHARGES AND SPIN POPULATIONS
--------------------------------------------
   0 V :    0.446992    1.199238
   1 S :   -0.250589   -0.023743
   2 S :   -0.253694   -0.024197
   3 S :   -0.251952   -0.024248
   4 S :   -0.253537   -0.024140
   5 O :   -0.506074   -0.138844
   6 C :   -0.117084    0.008880
   7 C :   -0.115329    0.008868
   8 C :   -0.103086    0.008966
   9 C :   -0.120830    0.008787
  10 S :   -0.044752   -0.000164
  11 S :   -0.044501   -0.000200
  12 S :   -0.051628   -0.000240
  13 S :   -0.035825   -0.000120
  14 C :   -0.339255    0.000285
  15 C :   -0.352676    0.000442
  16 C :   -0.337972    0.000272
  17 C :   -0.379956    0.000254
  18 C :   -0.083743    0.000135
  19 H :    0.146991   -0.000101
  20 H :    0.101922    0.000021
  21 H :    0.044697    0.000039
  22 H :    0.078507    0.000018
  23 H :    0.101863    0.000021
  24 H :    0.147507   -0.000103
  25 C :   -0.084706    0.000147
  26 H :    0.178148    0.000029
  27 H :    0.071699   -0.000208
  28 H :    0.081197    0.000014
  29 H :    0.046445    0.000035
  30 H :    0.250237   -0.000151
  31 H :    0.030983    0.000006
Sum of atomic charges         :   -2.0000000

LOEWDIN ATOMIC CHARGES AND SPIN POPULATIONS
-------------------------------------------
   0 V :   -0.242565    1.153246
   1 S :    0.091522   -0.016049
   2 S :    0.088211   -0.016371
   3 S :    0.088890   -0.016402
   4 S :    0.088205   -0.016394
   5 O :   -0.350730   -0.124287
   6 C :   -0.553206    0.010007
   7 C :   -0.552683    0.009946
   8 C :   -0.550599    0.009967
   9 C :   -0.551068    0.009949
  10 S :    0.336851   -0.001023
  11 S :    0.336740   -0.001046
  12 S :    0.341926   -0.001051
  13 S :    0.345388   -0.000986
  14 C :   -0.293632    0.000164
  15 C :   -0.191561    0.000174
  16 C :   -0.293676    0.000157
  17 C :   -0.272237    0.000171
  18 C :   -0.184806   -0.000036
  19 H :    0.065931   -0.000027
  20 H :    0.047324    0.000004
  21 H :    0.046838    0.000017
  22 H :    0.053391    0.000013
  23 H :    0.047349    0.000005
  24 H :    0.066071   -0.000027
  25 C :   -0.173063   -0.000037
  26 H :   -0.004035    0.000007
  27 H :    0.074648   -0.000128
  28 H :    0.055842    0.000013
  29 H :    0.048802    0.000017
  30 H :   -0.069939    0.000005
  31 H :    0.059870    0.000001

  Mayer bond orders larger than 0.100000
B(  0-V ,  1-S ) :   0.7847 B(  0-V ,  2-S ) :   0.7914 B(  0-V ,  3-S ) :   0.7914
B(  0-V ,  4-S ) :   0.7890 B(  0-V ,  5-O ) :   2.1082 B(  1-S ,  8-C ) :   1.1390
B(  2-S ,  6-C ) :   1.1365 B(  3-S ,  9-C ) :   1.1370 B(  4-S ,  7-C ) :   1.1378
B(  6-C ,  7-C ) :   1.5175 B(  6-C , 10-S ) :   0.9543 B(  7-C , 11-S ) :   0.9536
B(  8-C ,  9-C ) :   1.5169 B(  8-C , 13-S ) :   0.9461 B(  9-C , 12-S ) :   0.9558
B( 10-S , 16-C ) :   1.0050 B( 11-S , 14-C ) :   1.0049 B( 12-S , 15-C ) :   0.9946
B( 13-S , 17-C ) :   1.0092 B( 14-C , 18-C ) :   0.8780 B( 14-C , 23-H ) :   0.9700
B( 14-C , 24-H ) :   0.9753 B( 15-C , 25-C ) :   0.8761 B( 15-C , 30-H ) :   0.9842
B( 15-C , 31-H ) :   0.9540 B( 16-C , 18-C ) :   0.8777 B( 16-C , 19-H ) :   0.9753
B( 16-C , 20-H ) :   0.9701 B( 17-C , 25-C ) :   0.8821 B( 17-C , 26-H ) :   0.9591
B( 17-C , 27-H ) :   0.9504 B( 18-C , 21-H ) :   0.9527 B( 18-C , 22-H ) :   0.9738
B( 25-C , 28-H ) :   0.9671 B( 25-C , 29-H ) :   0.9529

FINAL SINGLE POINT ENERGY     -4592.482059880925

DIPOLE MOMENT
-------------
                                X             Y             Z
Electronic contribution:     -6.92012       7.00012     -24.95976
Nuclear contribution   :      7.77519      -7.74899      27.66177
                        -----------------------------------------
Total Dipole Moment    :      0.85507      -0.74887       2.70201
                        -----------------------------------------
Magnitude (a.u.)       :      2.93135
Magnitude (Debye)      :      7.45089

Rotational constants in cm-1:     0.012771     0.002548     0.002431
Rotational constants in MHz :   382.850107    76.396241    72.881720

                             ****ORCA TERMINATED NORMALLY****
TOTAL RUN TIME: 0 days 0 hours 27 minutes 23 seconds 800 msec
