                         Program Version 5.0.4 -  RELEASE  -
|  1> ! nofrozencore ReducedPop printbasis
|  2> ! B3LYP TZVP
|  3>
|  4> %basis
|  5> newgto V "CP(PPP)" end
|  6> end
|  7>
|  8> %pal
|  9> nprocs 8
| 10> end
| 11>
| 12> % sym SymThresh 1e-2 end
| 13> * xyz -2 2
| 14> V -0.4269745279411801 -0.8841408398152649 -0.529486432034065
| 15> S 0.54404495727323 -1.6736433054539135 1.563181179595273
| 16> S -2.201911015747706 0.09353237380633314 0.8685326462845571
| 17> S 1.9285758552415464 -0.6576727017786576 -1.2088240199385922
| 18> S -0.8367819896837163 1.0720940925668438 -1.926585349576093
| 19> O -1.0350738225123044 -2.1527142434433895 -1.2833792394221295
| 20> C -2.7873316659955893 1.1080645245945984 -0.09406230779752296
| 21> C -2.611355875125727 1.8470788976225225 -1.324521815750089
| 22> C 2.4793132785579584 -2.1099987707058507 1.164078844805619
| 23> C 2.609283796980131 -1.483699486807692 -0.13025511160235745
| 24> S -4.537867948847325 1.9280825362221092 0.4750013973384605
| 25> S -3.171550931311324 2.941794975050459 -2.3612019678399268
| 26> S 4.5475343798670504 -1.909348276884782 -0.46426691027932876
| 27> S 3.1649894205941282 -2.955230904094529 2.353314834467729
| 28> C -3.0627547859893833 4.472871749632195 -1.3157457362713953
| 29> C 5.471206076212826 -0.9036799683456459 0.7641451728746713
| 30> C -4.134863131666911 3.6719802167988265 0.8956646041173828
| 31> C 4.396771880292492 -1.7147262375909336 2.971725970464043
| 32> C -4.159791951241721 4.65899352636946 -0.26782329067139937
| 33> H -3.1374155373064156 3.6903502988357353 1.3432764769463093
| 34> H -4.840577299299777 3.975307292358311 1.676110335837264
| 35> H -4.051250570596809 5.675038806541786 0.145506788311772
| 36> H -5.127461766451103 4.6262156229201805 -0.7813191505379723
| 37> H -3.1505660565807085 5.283601372865922 -2.048398845066025
| 38> H -2.0528253639878513 4.485807757615813 -0.899183129744957
| 39> C 5.668416587175704 -1.5412478057325403 2.138369064141869
| 40> H 4.683325126808612 -2.11966718747518 3.9494952130642162
| 41> H 3.8427209312359807 -0.7860570866574199 3.128274721889932
| 42> H 6.139599020481829 -2.5257421926970984 2.037965427360142
| 43> H 6.363709121858373 -0.9107258389994642 2.7158082244069153
| 44> H 4.941482028005831 0.04420425209112375 0.8917802735099251
| 45> H 6.436956462003465 -0.6695230915754834 0.30435543421636463
| 46> *
| 47>
| 48> % eprnmr
| 49> gtensor true
| 50> Nuclei = all H {aiso,adip,aorb,fgrad,rho}
| 51> Nuclei = all V {aiso,adip,aorb,fgrad,rho}
| 52> end
| 53>
| 54>                          ****END OF INPUT****

CARTESIAN COORDINATES (ANGSTROEM)
---------------------------------
  V     -0.427498   -0.885039   -0.530059
  S      0.543522   -1.674541    1.562608
  S     -2.202434    0.092634    0.867960
  S      1.928053   -0.658571   -1.209397
  S     -0.837305    1.071196   -1.927158
  O     -1.035597   -2.153612   -1.283952
  C     -2.787855    1.107167   -0.094635
  C     -2.611879    1.846181   -1.325095
  C      2.478790   -2.110897    1.163506
  C      2.608761   -1.484597   -0.130828
  S     -4.538391    1.927185    0.474428
  S     -3.172074    2.940897   -2.361775
  S      4.547011   -1.910246   -0.464840
  S      3.164466   -2.956129    2.352742
  C     -3.063278    4.471974   -1.316319
  C      5.470683   -0.904578    0.763572
  C     -4.135386    3.671082    0.895092
  C      4.396249   -1.715624    2.971153
  C     -4.160315    4.658096   -0.268396
  H     -3.137939    3.689452    1.342703
  H     -4.841101    3.974409    1.675537
  H     -4.051774    5.674141    0.144934
  H     -5.127985    4.625318   -0.781892
  H     -3.151089    5.282703   -2.048972
  H     -2.053349    4.484910   -0.899756
  C      5.667893   -1.542146    2.137796
  H      4.682802   -2.120565    3.948922
  H      3.842198   -0.786955    3.127702
  H      6.139076   -2.526640    2.037392
  H      6.363186   -0.911624    2.715235
  H      4.940959    0.043306    0.891207
  H      6.436433   -0.670421    0.303782

 Total Charge           Charge          ....   -2
 Multiplicity           Mult            ....    2
 Number of Electrons    NEL             ....  233
 Basis Dimension        Dim             ....  517

ORBITAL ENERGIES
----------------
                 SPIN UP ORBITALS
  NO   OCC          E(Eh)            E(eV)
   0   1.0000    -196.646380     -5351.0200
   1   1.0000     -88.685722     -2413.2612
   2   1.0000     -88.685712     -2413.2609
   3   1.0000     -88.655701     -2412.4443
   4   1.0000     -88.655266     -2412.4324
   5   1.0000     -88.639748     -2412.0102
   6   1.0000     -88.639261     -2411.9969
   7   1.0000     -88.596375     -2410.8299
   8   1.0000     -88.595975     -2410.8190
   9   1.0000     -22.021450      -599.2341
  10   1.0000     -18.864272      -513.3229
  11   1.0000     -18.528364      -504.1824
  12   1.0000     -18.522699      -504.0283
  13   1.0000     -18.522279      -504.0168
  14   1.0000     -10.018077      -272.6057
  15   1.0000     -10.017623      -272.5934
  16   1.0000     -10.010768      -272.4069
  17   1.0000     -10.010582      -272.4018
  18   1.0000     -10.010026      -272.3867
  19   1.0000     -10.009969      -272.3851
  20   1.0000     -10.001766      -272.1619
  21   1.0000     -10.001453      -272.1534
  22   1.0000      -9.990468      -271.8544
  23   1.0000      -9.990396      -271.8525
  24   1.0000      -7.741310      -210.6518
  25   1.0000      -7.741281      -210.6510
  26   1.0000      -7.709499      -209.7861
  27   1.0000      -7.709050      -209.7739
  28   1.0000      -7.701111      -209.5579
  29   1.0000      -7.700477      -209.5406
  30   1.0000      -7.649031      -208.1407
  31   1.0000      -7.648606      -208.1291
  32   1.0000      -5.706396      -155.2789
  33   1.0000      -5.706369      -155.2782
  34   1.0000      -5.702238      -155.1658
  35   1.0000      -5.702220      -155.1653
  36   1.0000      -5.696264      -155.0032
  37   1.0000      -5.696225      -155.0022
  38   1.0000      -5.674401      -154.4083
  39   1.0000      -5.673955      -154.3962
  40   1.0000      -5.670798      -154.3103
  41   1.0000      -5.670346      -154.2980
  42   1.0000      -5.664788      -154.1467
  43   1.0000      -5.664564      -154.1406
  44   1.0000      -5.664160      -154.1296
  45   1.0000      -5.664121      -154.1286
  46   1.0000      -5.659560      -154.0045
  47   1.0000      -5.658930      -153.9873
  48   1.0000      -5.658711      -153.9814
  49   1.0000      -5.658090      -153.9645
  50   1.0000      -5.613755      -152.7580
  51   1.0000      -5.613317      -152.7461
  52   1.0000      -5.608165      -152.6059
  53   1.0000      -5.607771      -152.5952
  54   1.0000      -5.606799      -152.5688
  55   1.0000      -5.606378      -152.5573
  56   1.0000      -2.415808       -65.7375
  57   1.0000      -1.457459       -39.6595
  58   1.0000      -1.447713       -39.3943
  59   1.0000      -1.442711       -39.2582
  60   1.0000      -0.646652       -17.5963
  61   1.0000      -0.646402       -17.5895
  62   1.0000      -0.625225       -17.0132
  63   1.0000      -0.609222       -16.5778
  64   1.0000      -0.608197       -16.5499
  65   1.0000      -0.588229       -16.0065
  66   1.0000      -0.587923       -15.9982
  67   1.0000      -0.530565       -14.4374
  68   1.0000      -0.530342       -14.4314
  69   1.0000      -0.457122       -12.4389
  70   1.0000      -0.456463       -12.4210
  71   1.0000      -0.433023       -11.7832
  72   1.0000      -0.431675       -11.7465
  73   1.0000      -0.397341       -10.8122
  74   1.0000      -0.394402       -10.7322
  75   1.0000      -0.364255        -9.9119
  76   1.0000      -0.359355        -9.7786
  77   1.0000      -0.291275        -7.9260
  78   1.0000      -0.290993        -7.9183
  79   1.0000      -0.275316        -7.4917
  80   1.0000      -0.275268        -7.4904
  81   1.0000      -0.257997        -7.0204
  82   1.0000      -0.253242        -6.8911
  83   1.0000      -0.240794        -6.5523
  84   1.0000      -0.239526        -6.5178
  85   1.0000      -0.209247        -5.6939
  86   1.0000      -0.203293        -5.5319
  87   1.0000      -0.187865        -5.1121
  88   1.0000      -0.185537        -5.0487
  89   1.0000      -0.185399        -5.0450
  90   1.0000      -0.184919        -5.0319
  91   1.0000      -0.181126        -4.9287
  92   1.0000      -0.176123        -4.7926
  93   1.0000      -0.151680        -4.1274
  94   1.0000      -0.150634        -4.0990
  95   1.0000      -0.133523        -3.6333
  96   1.0000      -0.129767        -3.5311
  97   1.0000      -0.119156        -3.2424
  98   1.0000      -0.118834        -3.2336
  99   1.0000      -0.102998        -2.8027
 100   1.0000      -0.099511        -2.7078
 101   1.0000      -0.093400        -2.5416
 102   1.0000      -0.085653        -2.3307
 103   1.0000      -0.074713        -2.0330
 104   1.0000      -0.049697        -1.3523
 105   1.0000      -0.034684        -0.9438
 106   1.0000      -0.027372        -0.7448
 107   1.0000      -0.017511        -0.4765
 108   1.0000      -0.016019        -0.4359
 109   1.0000      -0.011405        -0.3104
 110   1.0000      -0.001545        -0.0420
 111   1.0000       0.004726         0.1286
 112   1.0000       0.005004         0.1362
 113   1.0000       0.011894         0.3237
 114   1.0000       0.020727         0.5640
 115   1.0000       0.036457         0.9921
 116   1.0000       0.060859         1.6560
 117   0.0000       0.178459         4.8561
 118   0.0000       0.184172         5.0116
 119   0.0000       0.194857         5.3023
 120   0.0000       0.195841         5.3291
 121   0.0000       0.200937         5.4678

                 SPIN DOWN ORBITALS
  NO   OCC          E(Eh)            E(eV)
   0   1.0000    -196.646519     -5351.0238
   1   1.0000     -88.685721     -2413.2612
   2   1.0000     -88.685710     -2413.2609
   3   1.0000     -88.655735     -2412.4452
   4   1.0000     -88.655300     -2412.4334
   5   1.0000     -88.639866     -2412.0134
   6   1.0000     -88.639381     -2412.0002
   7   1.0000     -88.596603     -2410.8361
   8   1.0000     -88.596205     -2410.8253
   9   1.0000     -22.006831      -598.8363
  10   1.0000     -18.867836      -513.4199
  11   1.0000     -18.523222      -504.0425
  12   1.0000     -18.507150      -503.6052
  13   1.0000     -18.506336      -503.5830
  14   1.0000     -10.017942      -272.6021
  15   1.0000     -10.017492      -272.5898
  16   1.0000     -10.010747      -272.4063
  17   1.0000     -10.010561      -272.4012
  18   1.0000     -10.010026      -272.3867
  19   1.0000     -10.009969      -272.3851
  20   1.0000     -10.001764      -272.1618
  21   1.0000     -10.001450      -272.1533
  22   1.0000      -9.989995      -271.8416
  23   1.0000      -9.989923      -271.8396
  24   1.0000      -7.741308      -210.6517
  25   1.0000      -7.741280      -210.6509
  26   1.0000      -7.709534      -209.7871
  27   1.0000      -7.709085      -209.7749
  28   1.0000      -7.701223      -209.5609
  29   1.0000      -7.700590      -209.5437
  30   1.0000      -7.649245      -208.1465
  31   1.0000      -7.648822      -208.1350
  32   1.0000      -5.706403      -155.2791
  33   1.0000      -5.706377      -155.2784
  34   1.0000      -5.702243      -155.1659
  35   1.0000      -5.702226      -155.1655
  36   1.0000      -5.696245      -155.0027
  37   1.0000      -5.696208      -155.0017
  38   1.0000      -5.674444      -154.4095
  39   1.0000      -5.673998      -154.3973
  40   1.0000      -5.670873      -154.3123
  41   1.0000      -5.670422      -154.3000
  42   1.0000      -5.664896      -154.1497
  43   1.0000      -5.664588      -154.1413
  44   1.0000      -5.664270      -154.1326
  45   1.0000      -5.664145      -154.1292
  46   1.0000      -5.659690      -154.0080
  47   1.0000      -5.659068      -153.9911
  48   1.0000      -5.658977      -153.9886
  49   1.0000      -5.658356      -153.9717
  50   1.0000      -5.614096      -152.7673
  51   1.0000      -5.613663      -152.7555
  52   1.0000      -5.608626      -152.6185
  53   1.0000      -5.608231      -152.6077
  54   1.0000      -5.606995      -152.5741
  55   1.0000      -5.606578      -152.5627
  56   1.0000      -2.371777       -64.5393
  57   1.0000      -1.438584       -39.1459
  58   1.0000      -1.386891       -37.7392
  59   1.0000      -1.381728       -37.5987
  60   1.0000      -0.646501       -17.5922
  61   1.0000      -0.646241       -17.5851
  62   1.0000      -0.632784       -17.2189
  63   1.0000      -0.609211       -16.5775
  64   1.0000      -0.608134       -16.5482
  65   1.0000      -0.588087       -16.0027
  66   1.0000      -0.587788       -15.9945
  67   1.0000      -0.530529       -14.4364
  68   1.0000      -0.530307       -14.4304
  69   1.0000      -0.457075       -12.4377
  70   1.0000      -0.456417       -12.4198
  71   1.0000      -0.433061       -11.7842
  72   1.0000      -0.431701       -11.7472
  73   1.0000      -0.397664       -10.8210
  74   1.0000      -0.394704       -10.7404
  75   1.0000      -0.364361        -9.9148
  76   1.0000      -0.359614        -9.7856
  77   1.0000      -0.291198        -7.9239
  78   1.0000      -0.290938        -7.9168
  79   1.0000      -0.275252        -7.4900
  80   1.0000      -0.275204        -7.4887
  81   1.0000      -0.257711        -7.0127
  82   1.0000      -0.253108        -6.8874
  83   1.0000      -0.240699        -6.5497
  84   1.0000      -0.239390        -6.5141
  85   1.0000      -0.208181        -5.6649
  86   1.0000      -0.202949        -5.5225
  87   1.0000      -0.187447        -5.1007
  88   1.0000      -0.185411        -5.0453
  89   1.0000      -0.185303        -5.0424
  90   1.0000      -0.184839        -5.0297
  91   1.0000      -0.180636        -4.9154
  92   1.0000      -0.175931        -4.7873
  93   1.0000      -0.151363        -4.1188
  94   1.0000      -0.150516        -4.0957
  95   1.0000      -0.132744        -3.6121
  96   1.0000      -0.129361        -3.5201
  97   1.0000      -0.118761        -3.2317
  98   1.0000      -0.117710        -3.2030
  99   1.0000      -0.102272        -2.7830
 100   1.0000      -0.099253        -2.7008
 101   1.0000      -0.093180        -2.5356
 102   1.0000      -0.087090        -2.3698
 103   1.0000      -0.077303        -2.1035
 104   1.0000      -0.048157        -1.3104
 105   1.0000      -0.034080        -0.9274
 106   1.0000      -0.025364        -0.6902
 107   1.0000      -0.016069        -0.4373
 108   1.0000      -0.011005        -0.2995
 109   1.0000      -0.007350        -0.2000
 110   1.0000       0.000059         0.0016
 111   1.0000       0.004355         0.1185
 112   1.0000       0.007086         0.1928
 113   1.0000       0.012814         0.3487
 114   1.0000       0.036659         0.9975
 115   1.0000       0.060064         1.6344
 116   0.0000       0.174339         4.7440
 117   0.0000       0.180244         4.9047
 118   0.0000       0.189062         5.1446
 119   0.0000       0.197680         5.3791
 120   0.0000       0.200179         5.4472

MULLIKEN ATOMIC CHARGES AND SPIN POPULATIONS
--------------------------------------------
   0 V :    0.403138    1.192836
   1 S :   -0.386235   -0.040277
   2 S :   -0.078237   -0.014756
   3 S :   -0.080704   -0.015294
   4 S :   -0.387998   -0.040597
   5 O :   -0.497038   -0.138353
   6 C :   -0.076382    0.003231
   7 C :   -0.159423    0.024162
   8 C :   -0.160276    0.024169
   9 C :   -0.075657    0.003085
  10 S :   -0.169534   -0.003893
  11 S :    0.068915    0.003420
  12 S :   -0.167024   -0.003853
  13 S :    0.067064    0.003225
  14 C :   -0.309780    0.001076
  15 C :   -0.338428    0.000171
  16 C :   -0.337622    0.000127
  17 C :   -0.308497    0.001109
  18 C :   -0.092279    0.000229
  19 H :    0.139510   -0.000230
  20 H :    0.103943   -0.000071
  21 H :    0.043710    0.000211
  22 H :    0.076246    0.000050
  23 H :    0.084140    0.000036
  24 H :    0.141500   -0.000019
  25 C :   -0.092877    0.000240
  26 H :    0.083864    0.000057
  27 H :    0.141375   -0.000029
  28 H :    0.076054    0.000036
  29 H :    0.044463    0.000198
  30 H :    0.140251   -0.000233
  31 H :    0.103820   -0.000063
Sum of atomic charges         :   -2.0000000

LOEWDIN ATOMIC CHARGES AND SPIN POPULATIONS
-------------------------------------------
   0 V :   -0.250178    1.146320
   1 S :   -0.078303   -0.028826
   2 S :    0.314209   -0.009062
   3 S :    0.310446   -0.009480
   4 S :   -0.080914   -0.029140
   5 O :   -0.346842   -0.123645
   6 C :   -0.502380    0.004886
   7 C :   -0.610537    0.023131
   8 C :   -0.609480    0.023078
   9 C :   -0.502539    0.004694
  10 S :    0.198189   -0.004201
  11 S :    0.443977    0.002276
  12 S :    0.200993   -0.004156
  13 S :    0.442646    0.002127
  14 C :   -0.288382    0.000866
  15 C :   -0.306527    0.000059
  16 C :   -0.306195    0.000054
  17 C :   -0.288907    0.000916
  18 C :   -0.184103    0.000050
  19 H :    0.062653   -0.000158
  20 H :    0.047258   -0.000102
  21 H :    0.046234    0.000095
  22 H :    0.052831    0.000042
  23 H :    0.041431    0.000046
  24 H :    0.063979    0.000080
  25 C :   -0.183941    0.000039
  26 H :    0.041356    0.000058
  27 H :    0.063870    0.000077
  28 H :    0.052954    0.000038
  29 H :    0.046316    0.000093
  30 H :    0.062736   -0.000156
  31 H :    0.047151   -0.000097

  Mayer bond orders larger than 0.100000
B(  0-V ,  1-S ) :   0.9017 B(  0-V ,  2-S ) :   0.6641 B(  0-V ,  3-S ) :   0.6666
B(  0-V ,  4-S ) :   0.9031 B(  0-V ,  5-O ) :   2.1148 B(  1-S ,  8-C ) :   0.8397
B(  2-S ,  6-C ) :   1.4642 B(  2-S ,  7-C ) :   0.1524 B(  3-S ,  8-C ) :   0.1507
B(  3-S ,  9-C ) :   1.4596 B(  4-S ,  7-C ) :   0.8354 B(  6-C ,  7-C ) :   1.4559
B(  6-C , 10-S ) :   0.7557 B(  7-C , 11-S ) :   1.2463 B(  8-C ,  9-C ) :   1.4586
B(  8-C , 13-S ) :   1.2397 B(  9-C , 12-S ) :   0.7589 B( 10-S , 16-C ) :   1.0454
B( 11-S , 14-C ) :   0.9332 B( 12-S , 15-C ) :   1.0451 B( 13-S , 17-C ) :   0.9362
B( 14-C , 18-C ) :   0.8942 B( 14-C , 23-H ) :   0.9666 B( 14-C , 24-H ) :   0.9691
B( 15-C , 25-C ) :   0.8770 B( 15-C , 30-H ) :   0.9777 B( 15-C , 31-H ) :   0.9695
B( 16-C , 18-C ) :   0.8775 B( 16-C , 19-H ) :   0.9780 B( 16-C , 20-H ) :   0.9693
B( 17-C , 25-C ) :   0.8934 B( 17-C , 26-H ) :   0.9671 B( 17-C , 27-H ) :   0.9686
B( 18-C , 21-H ) :   0.9545 B( 18-C , 22-H ) :   0.9731 B( 25-C , 28-H ) :   0.9741
B( 25-C , 29-H ) :   0.9539

FINAL SINGLE POINT ENERGY     -4592.537920276169

DIPOLE MOMENT
-------------
                                X             Y             Z
Electronic contribution:    -10.30392     -21.32470     -12.78217
Nuclear contribution   :     11.39828      23.56866      14.13886
                        -----------------------------------------
Total Dipole Moment    :      1.09436       2.24397       1.35669
                        -----------------------------------------
Magnitude (a.u.)       :      2.84141
Magnitude (Debye)      :      7.22230

Rotational constants in cm-1:     0.012770     0.002547     0.002430
Rotational constants in MHz :   382.834204    76.364379    72.851917

                             ****ORCA TERMINATED NORMALLY****
TOTAL RUN TIME: 0 days 0 hours 27 minutes 49 seconds 936 msec
