                         Program Version 5.0.4 -  RELEASE  -
|  1> ! nofrozencore ReducedPop printbasis
|  2> ! B3LYP TZVP
|  3>
|  4> %basis
|  5> newgto V "CP(PPP)" end
|  6> end
|  7>
|  8> %pal
|  9> nprocs 4
| 10> end
| 11>
| 12> % sym SymThresh 1e-2 end
| 13> * xyz -2 2
| 14> V 0.8438030992288655 -0.4639283460397598 0.5632135060290853
| 15> S 0.8520291636177443 -1.4115750252042516 -1.7023352666946847
| 16> S 1.6709217847919478 1.594180179021733 -0.47601080761672504
| 17> S -1.1269116797187304 -1.9013548080945784 0.8371077807613178
| 18> S -0.28627041990821733 1.0927951472101 2.082909454525719
| 19> O 2.0527036371620575 -1.1315805087074173 1.3654171336617702
| 20> C 1.3381745486717784 2.8465029257336023 0.7259887423143168
| 21> C 0.5209668935547598 2.6376461016529835 1.7920043176855687
| 22> C -0.21530543779679917 -2.793483389324602 -1.5861465537511532
| 23> C -1.0430482668782637 -2.9984979265280076 -0.5241697629857024
| 24> S 2.1472110418997103 4.42736320949373 0.4123697157083045
| 25> S 0.1536784590963688 3.921340119429636 3.0042582779428817
| 26> S -2.093575920385945 -4.440230558627516 -0.3513275920028427
| 27> S -0.06327572132719231 -3.9377919279794455 -2.957768816144772
| 28> C -0.8366515853014586 5.1477489152456215 2.021129453968026
| 29> C -3.5398135990398627 -4.040207366064953 -1.813089436296496
| 30> C 0.7244903889641033 5.54555087311839 -0.0065186854895616835
| 31> C -1.8955255032217837 -3.6361695823393148 -3.9175032588599263
| 32> C -0.028869558386088904 6.143333937257877 1.1845146508845805
| 33> H 0.0533032273427237 4.979303918074673 -0.6555986791285234
| 34> H 1.1678395810255469 6.350434376480677 -0.601016278963846
| 35> H -0.7220475111413397 6.9098027335541445 0.8011181906281118
| 36> H 0.6858743016927963 6.6582043602087895 1.8357720162416895
| 37> H -1.428099133996441 5.689859329048385 2.765515263249269
| 38> H -1.525785995884145 4.574556319882256 1.3974278217275258
| 39> C -3.0327913275262484 -4.522971001879173 -3.2432151168374093
| 40> H -1.7214613231234401 -3.9154639448240682 -4.959670201886295
| 41> H -2.0570218971763197 -2.558002446485536 -3.846147710445368
| 42> H -2.501498329328656 -5.51906020485806 -3.0195254965840332
| 43> H -3.9022583830520112 -4.778129528846017 -3.972951394732012
| 44> H -3.7072058408485837 -2.9637451837396007 -1.7295350179118865
| 45> H -4.432932935602112 -4.580203634960541 -1.4890383234709859
| 46> *
| 47>
| 48> % eprnmr
| 49> gtensor true
| 50> Nuclei = all H {aiso,adip,aorb,fgrad,rho}
| 51> Nuclei = all V {aiso,adip,aorb,fgrad,rho}
| 52> end
| 53>
| 54>                          ****END OF INPUT****

CARTESIAN COORDINATES (ANGSTROEM)
---------------------------------
  V      0.844723   -0.464347    0.563836
  S      0.852949   -1.411993   -1.701713
  S      1.671841    1.593762   -0.475388
  S     -1.125992   -1.901773    0.837730
  S     -0.285351    1.092377    2.083532
  O      2.053623   -1.131999    1.366040
  C      1.339094    2.846084    0.726611
  C      0.521887    2.637228    1.792627
  C     -0.214386   -2.793902   -1.585524
  C     -1.042129   -2.998916   -0.523547
  S      2.148131    4.426945    0.412992
  S      0.154598    3.920922    3.004881
  S     -2.092656   -4.440649   -0.350705
  S     -0.062356   -3.938210   -2.957146
  C     -0.835732    5.147330    2.021752
  C     -3.538894   -4.040626   -1.812467
  C      0.725410    5.545132   -0.005896
  C     -1.894606   -3.636588   -3.916881
  C     -0.027950    6.142915    1.185137
  H      0.054223    4.978885   -0.654976
  H      1.168759    6.350016   -0.600394
  H     -0.721128    6.909384    0.801741
  H      0.686794    6.657786    1.836395
  H     -1.427179    5.689441    2.766138
  H     -1.524866    4.574138    1.398050
  C     -3.031872   -4.523389   -3.242592
  H     -1.720542   -3.915882   -4.959048
  H     -2.056102   -2.558421   -3.845525
  H     -2.500579   -5.519479   -3.018903
  H     -3.901339   -4.778548   -3.972329
  H     -3.706286   -2.964164   -1.728912
  H     -4.432013   -4.580622   -1.488416

 Total Charge           Charge          ....   -2
 Multiplicity           Mult            ....    2
 Number of Electrons    NEL             ....  233
 Basis Dimension        Dim             ....  517

ORBITAL ENERGIES
----------------
                 SPIN UP ORBITALS
  NO   OCC          E(Eh)            E(eV)
   0   1.0000    -196.641402     -5350.8846
   1   1.0000     -88.681447     -2413.1449
   2   1.0000     -88.681424     -2413.1442
   3   1.0000     -88.677625     -2413.0408
   4   1.0000     -88.677524     -2413.0381
   5   1.0000     -88.613681     -2411.3009
   6   1.0000     -88.613671     -2411.3006
   7   1.0000     -88.613004     -2411.2824
   8   1.0000     -88.612997     -2411.2822
   9   1.0000     -22.017164      -599.1175
  10   1.0000     -18.858593      -513.1684
  11   1.0000     -18.524001      -504.0637
  12   1.0000     -18.518202      -503.9059
  13   1.0000     -18.518175      -503.9051
  14   1.0000     -10.028093      -272.8783
  15   1.0000     -10.028038      -272.8768
  16   1.0000     -10.026493      -272.8347
  17   1.0000     -10.016691      -272.5680
  18   1.0000     -10.016670      -272.5674
  19   1.0000     -10.005845      -272.2729
  20   1.0000      -9.993234      -271.9297
  21   1.0000      -9.992728      -271.9160
  22   1.0000      -9.992530      -271.9106
  23   1.0000      -9.992006      -271.8963
  24   1.0000      -7.732444      -210.4105
  25   1.0000      -7.732401      -210.4093
  26   1.0000      -7.731078      -210.3733
  27   1.0000      -7.731007      -210.3714
  28   1.0000      -7.668525      -208.6712
  29   1.0000      -7.668501      -208.6705
  30   1.0000      -7.667472      -208.6425
  31   1.0000      -7.667443      -208.6417
  32   1.0000      -5.697942      -155.0489
  33   1.0000      -5.697902      -155.0478
  34   1.0000      -5.696337      -155.0052
  35   1.0000      -5.696274      -155.0035
  36   1.0000      -5.694271      -154.9490
  37   1.0000      -5.694234      -154.9480
  38   1.0000      -5.692460      -154.8997
  39   1.0000      -5.692384      -154.8977
  40   1.0000      -5.686981      -154.7506
  41   1.0000      -5.686929      -154.7492
  42   1.0000      -5.685827      -154.7192
  43   1.0000      -5.685743      -154.7169
  44   1.0000      -5.633184      -153.2867
  45   1.0000      -5.633163      -153.2861
  46   1.0000      -5.632287      -153.2623
  47   1.0000      -5.632278      -153.2621
  48   1.0000      -5.626899      -153.1157
  49   1.0000      -5.626896      -153.1156
  50   1.0000      -5.626653      -153.1090
  51   1.0000      -5.626624      -153.1082
  52   1.0000      -5.625906      -153.0887
  53   1.0000      -5.625882      -153.0880
  54   1.0000      -5.625460      -153.0766
  55   1.0000      -5.625435      -153.0759
  56   1.0000      -2.410884       -65.6035
  57   1.0000      -1.452235       -39.5173
  58   1.0000      -1.440639       -39.2018
  59   1.0000      -1.439591       -39.1732
  60   1.0000      -0.643054       -17.4984
  61   1.0000      -0.620352       -16.8806
  62   1.0000      -0.618675       -16.8350
  63   1.0000      -0.594448       -16.1758
  64   1.0000      -0.586145       -15.9498
  65   1.0000      -0.574797       -15.6410
  66   1.0000      -0.547049       -14.8860
  67   1.0000      -0.490653       -13.3513
  68   1.0000      -0.489544       -13.3212
  69   1.0000      -0.487905       -13.2766
  70   1.0000      -0.475657       -12.9433
  71   1.0000      -0.426776       -11.6132
  72   1.0000      -0.422178       -11.4881
  73   1.0000      -0.411617       -11.2007
  74   1.0000      -0.405968       -11.0470
  75   1.0000      -0.380728       -10.3601
  76   1.0000      -0.375285       -10.2120
  77   1.0000      -0.292514        -7.9597
  78   1.0000      -0.277956        -7.5636
  79   1.0000      -0.274851        -7.4791
  80   1.0000      -0.259192        -7.0530
  81   1.0000      -0.258911        -7.0453
  82   1.0000      -0.247789        -6.7427
  83   1.0000      -0.241189        -6.5631
  84   1.0000      -0.231428        -6.2975
  85   1.0000      -0.195288        -5.3141
  86   1.0000      -0.192556        -5.2397
  87   1.0000      -0.188948        -5.1415
  88   1.0000      -0.188146        -5.1197
  89   1.0000      -0.185097        -5.0367
  90   1.0000      -0.181978        -4.9519
  91   1.0000      -0.175073        -4.7640
  92   1.0000      -0.152791        -4.1577
  93   1.0000      -0.147289        -4.0079
  94   1.0000      -0.144992        -3.9454
  95   1.0000      -0.143592        -3.9073
  96   1.0000      -0.129426        -3.5219
  97   1.0000      -0.099903        -2.7185
  98   1.0000      -0.098040        -2.6678
  99   1.0000      -0.088694        -2.4135
 100   1.0000      -0.084644        -2.3033
 101   1.0000      -0.081440        -2.2161
 102   1.0000      -0.079853        -2.1729
 103   1.0000      -0.068468        -1.8631
 104   1.0000      -0.050938        -1.3861
 105   1.0000      -0.039713        -1.0806
 106   1.0000      -0.039094        -1.0638
 107   1.0000      -0.035875        -0.9762
 108   1.0000      -0.033371        -0.9081
 109   1.0000      -0.013258        -0.3608
 110   1.0000      -0.007672        -0.2088
 111   1.0000      -0.004038        -0.1099
 112   1.0000       0.005075         0.1381
 113   1.0000       0.010818         0.2944
 114   1.0000       0.014930         0.4063
 115   1.0000       0.033092         0.9005
 116   1.0000       0.058983         1.6050
 117   0.0000       0.160563         4.3691
 118   0.0000       0.177480         4.8295
 119   0.0000       0.190490         5.1835
 120   0.0000       0.196119         5.3367
 121   0.0000       0.199628         5.4322

                 SPIN DOWN ORBITALS
  NO   OCC          E(Eh)            E(eV)
   0   1.0000    -196.641543     -5350.8884
   1   1.0000     -88.681463     -2413.1453
   2   1.0000     -88.681439     -2413.1446
   3   1.0000     -88.677638     -2413.0412
   4   1.0000     -88.677537     -2413.0385
   5   1.0000     -88.613843     -2411.3053
   6   1.0000     -88.613833     -2411.3050
   7   1.0000     -88.613165     -2411.2868
   8   1.0000     -88.613158     -2411.2866
   9   1.0000     -22.002460      -598.7174
  10   1.0000     -18.862178      -513.2660
  11   1.0000     -18.518855      -503.9237
  12   1.0000     -18.502693      -503.4839
  13   1.0000     -18.501985      -503.4646
  14   1.0000     -10.028088      -272.8781
  15   1.0000     -10.028032      -272.8766
  16   1.0000     -10.026492      -272.8347
  17   1.0000     -10.016688      -272.5679
  18   1.0000     -10.016666      -272.5674
  19   1.0000     -10.005844      -272.2729
  20   1.0000      -9.992992      -271.9231
  21   1.0000      -9.992475      -271.9091
  22   1.0000      -9.992290      -271.9040
  23   1.0000      -9.991755      -271.8895
  24   1.0000      -7.732460      -210.4109
  25   1.0000      -7.732417      -210.4098
  26   1.0000      -7.731092      -210.3737
  27   1.0000      -7.731021      -210.3718
  28   1.0000      -7.668675      -208.6753
  29   1.0000      -7.668651      -208.6746
  30   1.0000      -7.667622      -208.6466
  31   1.0000      -7.667593      -208.6458
  32   1.0000      -5.697957      -155.0493
  33   1.0000      -5.697917      -155.0482
  34   1.0000      -5.696354      -155.0057
  35   1.0000      -5.696291      -155.0040
  36   1.0000      -5.694297      -154.9497
  37   1.0000      -5.694259      -154.9487
  38   1.0000      -5.692480      -154.9003
  39   1.0000      -5.692405      -154.8982
  40   1.0000      -5.687003      -154.7512
  41   1.0000      -5.686950      -154.7498
  42   1.0000      -5.685845      -154.7197
  43   1.0000      -5.685760      -154.7174
  44   1.0000      -5.633354      -153.2914
  45   1.0000      -5.633332      -153.2908
  46   1.0000      -5.632459      -153.2670
  47   1.0000      -5.632450      -153.2668
  48   1.0000      -5.627289      -153.1263
  49   1.0000      -5.627286      -153.1262
  50   1.0000      -5.626797      -153.1129
  51   1.0000      -5.626769      -153.1122
  52   1.0000      -5.626300      -153.0994
  53   1.0000      -5.626275      -153.0987
  54   1.0000      -5.625597      -153.0803
  55   1.0000      -5.625572      -153.0796
  56   1.0000      -2.366602       -64.3985
  57   1.0000      -1.433348       -39.0034
  58   1.0000      -1.379162       -37.5289
  59   1.0000      -1.378418       -37.5086
  60   1.0000      -0.643003       -17.4970
  61   1.0000      -0.627351       -17.0711
  62   1.0000      -0.619209       -16.8495
  63   1.0000      -0.594255       -16.1705
  64   1.0000      -0.586054       -15.9473
  65   1.0000      -0.574791       -15.6409
  66   1.0000      -0.547030       -14.8855
  67   1.0000      -0.490687       -13.3523
  68   1.0000      -0.489564       -13.3217
  69   1.0000      -0.487926       -13.2771
  70   1.0000      -0.475742       -12.9456
  71   1.0000      -0.427061       -11.6209
  72   1.0000      -0.422485       -11.4964
  73   1.0000      -0.411648       -11.2015
  74   1.0000      -0.406013       -11.0482
  75   1.0000      -0.380702       -10.3594
  76   1.0000      -0.375306       -10.2126
  77   1.0000      -0.292497        -7.9593
  78   1.0000      -0.277937        -7.5630
  79   1.0000      -0.274842        -7.4788
  80   1.0000      -0.259164        -7.0522
  81   1.0000      -0.258764        -7.0413
  82   1.0000      -0.247705        -6.7404
  83   1.0000      -0.241097        -6.5606
  84   1.0000      -0.231266        -6.2931
  85   1.0000      -0.194801        -5.3008
  86   1.0000      -0.192523        -5.2388
  87   1.0000      -0.188552        -5.1308
  88   1.0000      -0.188132        -5.1193
  89   1.0000      -0.185052        -5.0355
  90   1.0000      -0.180422        -4.9095
  91   1.0000      -0.174856        -4.7581
  92   1.0000      -0.152136        -4.1398
  93   1.0000      -0.147031        -4.0009
  94   1.0000      -0.144724        -3.9381
  95   1.0000      -0.143495        -3.9047
  96   1.0000      -0.129272        -3.5177
  97   1.0000      -0.099442        -2.7060
  98   1.0000      -0.096543        -2.6271
  99   1.0000      -0.088987        -2.4215
 100   1.0000      -0.084224        -2.2919
 101   1.0000      -0.083287        -2.2663
 102   1.0000      -0.080071        -2.1788
 103   1.0000      -0.069254        -1.8845
 104   1.0000      -0.047019        -1.2794
 105   1.0000      -0.039407        -1.0723
 106   1.0000      -0.038863        -1.0575
 107   1.0000      -0.034797        -0.9469
 108   1.0000      -0.033343        -0.9073
 109   1.0000      -0.012384        -0.3370
 110   1.0000      -0.008734        -0.2377
 111   1.0000      -0.003719        -0.1012
 112   1.0000       0.006297         0.1714
 113   1.0000       0.011715         0.3188
 114   1.0000       0.033361         0.9078
 115   1.0000       0.058199         1.5837
 116   0.0000       0.160681         4.3724
 117   0.0000       0.176977         4.8158
 118   0.0000       0.185435         5.0459
 119   0.0000       0.191360         5.2072
 120   0.0000       0.196289         5.3413

MULLIKEN ATOMIC CHARGES AND SPIN POPULATIONS
--------------------------------------------
   0 V :    0.442709    1.201706
   1 S :   -0.242556   -0.024145
   2 S :   -0.252664   -0.024326
   3 S :   -0.242792   -0.024071
   4 S :   -0.252943   -0.024223
   5 O :   -0.506209   -0.139046
   6 C :   -0.116158    0.008847
   7 C :   -0.115056    0.008849
   8 C :   -0.097303    0.008320
   9 C :   -0.097332    0.008269
  10 S :   -0.045612   -0.000192
  11 S :   -0.045366   -0.000229
  12 S :   -0.071514   -0.000562
  13 S :   -0.070872   -0.000594
  14 C :   -0.338365    0.000291
  15 C :   -0.344160    0.000383
  16 C :   -0.337222    0.000275
  17 C :   -0.343297    0.000411
  18 C :   -0.087426    0.000132
  19 H :    0.147062   -0.000101
  20 H :    0.102322    0.000023
  21 H :    0.045476    0.000039
  22 H :    0.079854    0.000015
  23 H :    0.102258    0.000024
  24 H :    0.147549   -0.000103
  25 C :   -0.123534    0.000015
  26 H :    0.103481    0.000034
  27 H :    0.152525   -0.000086
  28 H :    0.102591    0.000003
  29 H :    0.048153    0.000091
  30 H :    0.152840   -0.000083
  31 H :    0.103562    0.000032
Sum of atomic charges         :   -2.0000000

LOEWDIN ATOMIC CHARGES AND SPIN POPULATIONS
-------------------------------------------
   0 V :   -0.240851    1.155529
   1 S :    0.102115   -0.016493
   2 S :    0.088771   -0.016505
   3 S :    0.101638   -0.016428
   4 S :    0.088541   -0.016470
   5 O :   -0.351384   -0.124472
   6 C :   -0.554226    0.009961
   7 C :   -0.553697    0.009910
   8 C :   -0.570288    0.009436
   9 C :   -0.570832    0.009460
  10 S :    0.334268   -0.001046
  11 S :    0.334090   -0.001067
  12 S :    0.278140   -0.001329
  13 S :    0.279076   -0.001347
  14 C :   -0.290360    0.000169
  15 C :   -0.237931    0.000267
  16 C :   -0.290477    0.000161
  17 C :   -0.238624    0.000286
  18 C :   -0.184776   -0.000037
  19 H :    0.065949   -0.000026
  20 H :    0.047302    0.000005
  21 H :    0.046829    0.000017
  22 H :    0.053855    0.000012
  23 H :    0.047309    0.000006
  24 H :    0.066099   -0.000026
  25 C :   -0.195947   -0.000020
  26 H :    0.046570    0.000011
  27 H :    0.066873   -0.000007
  28 H :    0.068570    0.000010
  29 H :    0.049873    0.000029
  30 H :    0.066957   -0.000006
  31 H :    0.046569    0.000011

  Mayer bond orders larger than 0.100000
B(  0-V ,  1-S ) :   0.7865 B(  0-V ,  2-S ) :   0.7930 B(  0-V ,  3-S ) :   0.7889
B(  0-V ,  4-S ) :   0.7904 B(  0-V ,  5-O ) :   2.1082 B(  1-S ,  8-C ) :   1.1572
B(  2-S ,  6-C ) :   1.1371 B(  3-S ,  9-C ) :   1.1558 B(  4-S ,  7-C ) :   1.1383
B(  6-C ,  7-C ) :   1.5152 B(  6-C , 10-S ) :   0.9553 B(  7-C , 11-S ) :   0.9552
B(  8-C ,  9-C ) :   1.4512 B(  8-C , 13-S ) :   0.9822 B(  9-C , 12-S ) :   0.9834
B( 10-S , 16-C ) :   1.0017 B( 11-S , 14-C ) :   1.0017 B( 12-S , 15-C ) :   0.9448
B( 13-S , 17-C ) :   0.9466 B( 14-C , 18-C ) :   0.8778 B( 14-C , 23-H ) :   0.9702
B( 14-C , 24-H ) :   0.9755 B( 15-C , 25-C ) :   0.8728 B( 15-C , 30-H ) :   0.9734
B( 15-C , 31-H ) :   0.9646 B( 16-C , 18-C ) :   0.8779 B( 16-C , 19-H ) :   0.9755
B( 16-C , 20-H ) :   0.9702 B( 17-C , 25-C ) :   0.8729 B( 17-C , 26-H ) :   0.9648
B( 17-C , 27-H ) :   0.9733 B( 18-C , 21-H ) :   0.9518 B( 18-C , 22-H ) :   0.9746
B( 25-C , 28-H ) :   0.9817 B( 25-C , 29-H ) :   0.9311

FINAL SINGLE POINT ENERGY     -4592.686641106615

DIPOLE MOMENT
-------------
                                X             Y             Z
Electronic contribution:     20.56318     -10.91038      13.82266
Nuclear contribution   :    -22.75058      12.32146     -15.24510
                        -----------------------------------------
Total Dipole Moment    :     -2.18739       1.41109      -1.42244
                        -----------------------------------------
Magnitude (a.u.)       :      2.96634
Magnitude (Debye)      :      7.53984

Rotational constants in cm-1:     0.012486     0.002540     0.002428
Rotational constants in MHz :   374.318419    76.138643    72.790188

                             ****ORCA TERMINATED NORMALLY****
TOTAL RUN TIME: 0 days 0 hours 42 minutes 58 seconds 756 msec
