                         Program Version 5.0.4 -  RELEASE  -
|  1> ! nofrozencore ReducedPop printbasis
|  2> ! B3LYP TZVP
|  3>
|  4> %basis
|  5> newgto V "CP(PPP)" end
|  6> end
|  7>
|  8> %pal
|  9> nprocs 8
| 10> end
| 11>
| 12> % sym SymThresh 1e-2 end
| 13> * xyz -2 2
| 14> V 0.3385694833873909 0.37792020348403277 0.9932947866239824
| 15> S -2.1102175753071055 0.2986161398727098 1.0242460251143382
| 16> S 0.2424355604496183 -2.0668843049316905 1.1078329750361842
| 17> S -0.012880107342105838 2.310909736683471 -0.4686602658401784
| 18> S 2.3422723970393524 -0.05357423171732711 -0.35138102247905156
| 19> O 0.8182494753227411 0.9197589930707032 2.416605048672336
| 20> C 1.7468553870527492 -2.677300514867874 0.6395651904849172
| 21> C 2.809678342379671 -1.6576311385484463 -0.10114116115215165
| 22> C -2.476553024234399 1.9998347483870755 0.3182145824754966
| 23> C -1.836642919312288 2.6140061421404956 -0.1372591352180211
| 24> S 2.2098146415892574 -4.325907718193097 0.8772987666246508
| 25> S 4.33782312223675 -2.284487338254642 -0.6122273521947847
| 26> S -2.2148969909026013 4.327102895289199 -0.8929841103622328
| 27> S -4.34077544984347 2.2874557952415557 0.62110633331986
| 28> C 3.9233664426245816 -3.4546382631429777 -1.9771454507427633
| 29> C -3.314839897462074 3.862454581468474 -2.305115095957428
| 30> C 2.277634116373955 -5.03628655597958 -0.8238390100151641
| 31> C -4.996737717453371 2.2502139439928373 -1.1072213401953928
| 32> C 3.5809935752462017 -4.877677436424589 -1.5818576255987367
| 33> H 1.37560843787894 -4.719124570252477 -1.3722644781530395
| 34> H 1.9434691341891404 -6.087290789303823 -0.7239718170239473
| 35> H 3.488207138163708 -5.458935312671095 -2.511023308076269
| 36> H 4.393977464610273 -5.27202017805552 -0.9624685600571609
| 37> H 4.7582736522220195 -3.38020926159719 -2.7008448420587414
| 38> H 3.19631506345242 -2.967329309275015 -2.6472809454928687
| 39> C -4.774989523212268 3.5409427779476506 -1.923293782933448
| 40> H -6.087399669483083 2.2217863118493844 -0.957310597179911
| 41> H -4.409093911737779 1.4690640332401443 -1.6175750556988235
| 42> H -5.2236394283777 4.395415888238681 -1.4032860607844202
| 43> H -5.378884823572582 3.4826146035560375 -2.8493200315753904
| 44> H -2.8939227409347605 2.920562578984332 -2.694687771383176
| 45> H -3.396187365235659 4.800965008602457 -2.875593198366815
| 46> *
| 47>
| 48> % eprnmr
| 49> gtensor true
| 50> Nuclei = all H {aiso,adip,aorb,fgrad,rho}
| 51> Nuclei = all V {aiso,adip,aorb,fgrad,rho}
| 52> end
| 53>
| 54>                          ****END OF INPUT****

CARTESIAN COORDINATES (ANGSTROEM)
---------------------------------
  V      0.338982    0.378259    0.994355
  S     -2.109805    0.298955    1.025306
  S      0.242848   -2.066545    1.108893
  S     -0.012467    2.311249   -0.467601
  S      2.342685   -0.053235   -0.350321
  O      0.818662    0.920098    2.417665
  C      1.747268   -2.676961    0.640625
  C      2.810091   -1.657292   -0.100081
  C     -2.476140    2.000174    0.319274
  C     -1.836230    2.614345   -0.136199
  S      2.210227   -4.325568    0.878358
  S      4.338236   -2.284148   -0.611168
  S     -2.214484    4.327442   -0.891924
  S     -4.340363    2.287795    0.622166
  C      3.923779   -3.454299   -1.976086
  C     -3.314427    3.862794   -2.304055
  C      2.278047   -5.035947   -0.822779
  C     -4.996325    2.250553   -1.106162
  C      3.581406   -4.877338   -1.580798
  H      1.376021   -4.718785   -1.371205
  H      1.943882   -6.086952   -0.722912
  H      3.488620   -5.458596   -2.509964
  H      4.394390   -5.271681   -0.961409
  H      4.758686   -3.379870   -2.699785
  H      3.196728   -2.966990   -2.646221
  C     -4.774577    3.541282   -1.922234
  H     -6.086987    2.222126   -0.956251
  H     -4.408681    1.469403   -1.616515
  H     -5.223227    4.395755   -1.402226
  H     -5.378472    3.482954   -2.848260
  H     -2.893510    2.920902   -2.693628
  H     -3.395775    4.801304   -2.874533

 Total Charge           Charge          ....   -2
 Multiplicity           Mult            ....    2
 Number of Electrons    NEL             ....  233
 Basis Dimension        Dim             ....  517

ORBITAL ENERGIES
----------------
                 SPIN UP ORBITALS
  NO   OCC          E(Eh)            E(eV)
   0   1.0000    -196.641133     -5350.8773
   1   1.0000     -88.680833     -2413.1282
   2   1.0000     -88.680821     -2413.1278
   3   1.0000     -88.672167     -2412.8923
   4   1.0000     -88.672015     -2412.8882
   5   1.0000     -88.614951     -2411.3354
   6   1.0000     -88.614900     -2411.3340
   7   1.0000     -88.612433     -2411.2669
   8   1.0000     -88.612300     -2411.2633
   9   1.0000     -22.017084      -599.1153
  10   1.0000     -18.857504      -513.1388
  11   1.0000     -18.523735      -504.0565
  12   1.0000     -18.518236      -503.9068
  13   1.0000     -18.518180      -503.9053
  14   1.0000     -10.027327      -272.8574
  15   1.0000     -10.027300      -272.8567
  16   1.0000     -10.007736      -272.3243
  17   1.0000     -10.007653      -272.3221
  18   1.0000     -10.007208      -272.3100
  19   1.0000     -10.002499      -272.1818
  20   1.0000      -9.992432      -271.9079
  21   1.0000      -9.992212      -271.9019
  22   1.0000      -9.967027      -271.2166
  23   1.0000      -9.953009      -270.8351
  24   1.0000      -7.734001      -210.4529
  25   1.0000      -7.733980      -210.4523
  26   1.0000      -7.726246      -210.2418
  27   1.0000      -7.726106      -210.2380
  28   1.0000      -7.670495      -208.7248
  29   1.0000      -7.670442      -208.7233
  30   1.0000      -7.665607      -208.5918
  31   1.0000      -7.665467      -208.5880
  32   1.0000      -5.699273      -155.0851
  33   1.0000      -5.699255      -155.0846
  34   1.0000      -5.695732      -154.9887
  35   1.0000      -5.695709      -154.9881
  36   1.0000      -5.691415      -154.8713
  37   1.0000      -5.691278      -154.8676
  38   1.0000      -5.688329      -154.7873
  39   1.0000      -5.688318      -154.7870
  40   1.0000      -5.687295      -154.7592
  41   1.0000      -5.687157      -154.7554
  42   1.0000      -5.681354      -154.5975
  43   1.0000      -5.681208      -154.5935
  44   1.0000      -5.634490      -153.3223
  45   1.0000      -5.634442      -153.3210
  46   1.0000      -5.631681      -153.2458
  47   1.0000      -5.631553      -153.2423
  48   1.0000      -5.629362      -153.1827
  49   1.0000      -5.629312      -153.1814
  50   1.0000      -5.628751      -153.1661
  51   1.0000      -5.628686      -153.1643
  52   1.0000      -5.624020      -153.0374
  53   1.0000      -5.623881      -153.0336
  54   1.0000      -5.622549      -152.9973
  55   1.0000      -5.622400      -152.9933
  56   1.0000      -2.410441       -65.5914
  57   1.0000      -1.451570       -39.4992
  58   1.0000      -1.440321       -39.1931
  59   1.0000      -1.439130       -39.1607
  60   1.0000      -0.664523       -18.0826
  61   1.0000      -0.637784       -17.3550
  62   1.0000      -0.626755       -17.0549
  63   1.0000      -0.618500       -16.8302
  64   1.0000      -0.579850       -15.7785
  65   1.0000      -0.578273       -15.7356
  66   1.0000      -0.573714       -15.6116
  67   1.0000      -0.501353       -13.6425
  68   1.0000      -0.501003       -13.6330
  69   1.0000      -0.489904       -13.3310
  70   1.0000      -0.464699       -12.6451
  71   1.0000      -0.432427       -11.7669
  72   1.0000      -0.431602       -11.7445
  73   1.0000      -0.408981       -11.1289
  74   1.0000      -0.404866       -11.0170
  75   1.0000      -0.390400       -10.6233
  76   1.0000      -0.333223        -9.0675
  77   1.0000      -0.316804        -8.6207
  78   1.0000      -0.277625        -7.5546
  79   1.0000      -0.270176        -7.3519
  80   1.0000      -0.270058        -7.3487
  81   1.0000      -0.267370        -7.2755
  82   1.0000      -0.261070        -7.1041
  83   1.0000      -0.234857        -6.3908
  84   1.0000      -0.232837        -6.3358
  85   1.0000      -0.210096        -5.7170
  86   1.0000      -0.201992        -5.4965
  87   1.0000      -0.190488        -5.1834
  88   1.0000      -0.185855        -5.0574
  89   1.0000      -0.184650        -5.0246
  90   1.0000      -0.183065        -4.9815
  91   1.0000      -0.172874        -4.7041
  92   1.0000      -0.169192        -4.6040
  93   1.0000      -0.154056        -4.1921
  94   1.0000      -0.153710        -4.1827
  95   1.0000      -0.140713        -3.8290
  96   1.0000      -0.129950        -3.5361
  97   1.0000      -0.111536        -3.0350
  98   1.0000      -0.104591        -2.8461
  99   1.0000      -0.096418        -2.6237
 100   1.0000      -0.083201        -2.2640
 101   1.0000      -0.080859        -2.2003
 102   1.0000      -0.064544        -1.7563
 103   1.0000      -0.059742        -1.6257
 104   1.0000      -0.051896        -1.4122
 105   1.0000      -0.042445        -1.1550
 106   1.0000      -0.037470        -1.0196
 107   1.0000      -0.029071        -0.7911
 108   1.0000      -0.020987        -0.5711
 109   1.0000      -0.011795        -0.3210
 110   1.0000      -0.011501        -0.3130
 111   1.0000      -0.002599        -0.0707
 112   1.0000       0.010321         0.2809
 113   1.0000       0.012948         0.3523
 114   1.0000       0.016152         0.4395
 115   1.0000       0.017694         0.4815
 116   1.0000       0.074978         2.0403
 117   0.0000       0.169861         4.6222
 118   0.0000       0.176378         4.7995
 119   0.0000       0.194183         5.2840
 120   0.0000       0.199901         5.4396
 121   0.0000       0.205895         5.6027

                 SPIN DOWN ORBITALS
  NO   OCC          E(Eh)            E(eV)
   0   1.0000    -196.641271     -5350.8810
   1   1.0000     -88.680845     -2413.1285
   2   1.0000     -88.680832     -2413.1281
   3   1.0000     -88.672181     -2412.8927
   4   1.0000     -88.672029     -2412.8886
   5   1.0000     -88.615095     -2411.3393
   6   1.0000     -88.615041     -2411.3378
   7   1.0000     -88.612603     -2411.2715
   8   1.0000     -88.612470     -2411.2679
   9   1.0000     -22.002540      -598.7195
  10   1.0000     -18.861069      -513.2358
  11   1.0000     -18.518620      -503.9173
  12   1.0000     -18.502875      -503.4888
  13   1.0000     -18.502213      -503.4708
  14   1.0000     -10.027325      -272.8574
  15   1.0000     -10.027298      -272.8567
  16   1.0000     -10.007736      -272.3243
  17   1.0000     -10.007650      -272.3220
  18   1.0000     -10.007208      -272.3100
  19   1.0000     -10.002498      -272.1818
  20   1.0000      -9.992221      -271.9022
  21   1.0000      -9.991981      -271.8956
  22   1.0000      -9.966684      -271.2073
  23   1.0000      -9.952677      -270.8261
  24   1.0000      -7.734013      -210.4532
  25   1.0000      -7.733992      -210.4526
  26   1.0000      -7.726261      -210.2422
  27   1.0000      -7.726121      -210.2384
  28   1.0000      -7.670629      -208.7284
  29   1.0000      -7.670573      -208.7269
  30   1.0000      -7.665761      -208.5960
  31   1.0000      -7.665622      -208.5922
  32   1.0000      -5.699289      -155.0855
  33   1.0000      -5.699272      -155.0851
  34   1.0000      -5.695746      -154.9891
  35   1.0000      -5.695723      -154.9885
  36   1.0000      -5.691431      -154.8717
  37   1.0000      -5.691295      -154.8680
  38   1.0000      -5.688344      -154.7877
  39   1.0000      -5.688333      -154.7874
  40   1.0000      -5.687317      -154.7598
  41   1.0000      -5.687179      -154.7560
  42   1.0000      -5.681373      -154.5980
  43   1.0000      -5.681226      -154.5940
  44   1.0000      -5.634641      -153.3264
  45   1.0000      -5.634593      -153.3251
  46   1.0000      -5.631860      -153.2507
  47   1.0000      -5.631732      -153.2472
  48   1.0000      -5.629531      -153.1873
  49   1.0000      -5.629477      -153.1858
  50   1.0000      -5.629057      -153.1744
  51   1.0000      -5.628985      -153.1725
  52   1.0000      -5.624472      -153.0497
  53   1.0000      -5.624334      -153.0459
  54   1.0000      -5.622664      -153.0005
  55   1.0000      -5.622515      -152.9964
  56   1.0000      -2.366589       -64.3981
  57   1.0000      -1.432773       -38.9877
  58   1.0000      -1.379327       -37.5334
  59   1.0000      -1.378764       -37.5181
  60   1.0000      -0.663996       -18.0683
  61   1.0000      -0.637772       -17.3546
  62   1.0000      -0.626871       -17.0580
  63   1.0000      -0.625791       -17.0286
  64   1.0000      -0.579742       -15.7756
  65   1.0000      -0.578256       -15.7351
  66   1.0000      -0.573726       -15.6119
  67   1.0000      -0.501339       -13.6421
  68   1.0000      -0.500943       -13.6314
  69   1.0000      -0.489990       -13.3333
  70   1.0000      -0.464776       -12.6472
  71   1.0000      -0.432622       -11.7723
  72   1.0000      -0.431580       -11.7439
  73   1.0000      -0.409360       -11.1393
  74   1.0000      -0.404894       -11.0177
  75   1.0000      -0.390376       -10.6227
  76   1.0000      -0.333163        -9.0658
  77   1.0000      -0.316767        -8.6197
  78   1.0000      -0.277613        -7.5542
  79   1.0000      -0.270156        -7.3513
  80   1.0000      -0.270050        -7.3484
  81   1.0000      -0.267299        -7.2736
  82   1.0000      -0.260903        -7.0995
  83   1.0000      -0.234724        -6.3872
  84   1.0000      -0.232702        -6.3321
  85   1.0000      -0.209530        -5.7016
  86   1.0000      -0.201637        -5.4868
  87   1.0000      -0.189421        -5.1544
  88   1.0000      -0.185012        -5.0344
  89   1.0000      -0.184600        -5.0232
  90   1.0000      -0.183021        -4.9803
  91   1.0000      -0.172596        -4.6966
  92   1.0000      -0.169139        -4.6025
  93   1.0000      -0.153581        -4.1792
  94   1.0000      -0.152921        -4.1612
  95   1.0000      -0.140576        -3.8253
  96   1.0000      -0.129647        -3.5279
  97   1.0000      -0.111306        -3.0288
  98   1.0000      -0.104270        -2.8373
  99   1.0000      -0.094959        -2.5840
 100   1.0000      -0.084026        -2.2865
 101   1.0000      -0.082622        -2.2483
 102   1.0000      -0.064927        -1.7667
 103   1.0000      -0.058681        -1.5968
 104   1.0000      -0.051332        -1.3968
 105   1.0000      -0.042005        -1.1430
 106   1.0000      -0.036046        -0.9809
 107   1.0000      -0.028942        -0.7876
 108   1.0000      -0.018382        -0.5002
 109   1.0000      -0.012414        -0.3378
 110   1.0000      -0.009915        -0.2698
 111   1.0000      -0.000843        -0.0229
 112   1.0000       0.011183         0.3043
 113   1.0000       0.012659         0.3445
 114   1.0000       0.017048         0.4639
 115   1.0000       0.074738         2.0337
 116   0.0000       0.165849         4.5130
 117   0.0000       0.176815         4.8114
 118   0.0000       0.184007         5.0071
 119   0.0000       0.195780         5.3274
 120   0.0000       0.200155         5.4465

MULLIKEN ATOMIC CHARGES AND SPIN POPULATIONS
--------------------------------------------
   0 V :    0.446425    1.192727
   1 S :   -0.299526   -0.026515
   2 S :   -0.207523   -0.019899
   3 S :   -0.299805   -0.026496
   4 S :   -0.207671   -0.020258
   5 O :   -0.505646   -0.137889
   6 C :   -0.176724    0.006751
   7 C :   -0.175383    0.005501
   8 C :   -0.056412    0.013279
   9 C :   -0.057140    0.013329
  10 S :   -0.028278   -0.000051
  11 S :   -0.027895   -0.000117
  12 S :   -0.060463   -0.000435
  13 S :   -0.060556   -0.000434
  14 C :   -0.325528    0.000155
  15 C :   -0.343274   -0.000020
  16 C :   -0.324325    0.000241
  17 C :   -0.342843   -0.000008
  18 C :   -0.076970    0.000248
  19 H :    0.136791   -0.000069
  20 H :    0.088839   -0.000011
  21 H :    0.037204    0.000059
  22 H :    0.079442   -0.000001
  23 H :    0.088915   -0.000036
  24 H :    0.137317   -0.000063
  25 C :   -0.096162    0.000314
  26 H :    0.113242    0.000018
  27 H :    0.152018   -0.000142
  28 H :    0.075653   -0.000056
  29 H :    0.050658   -0.000002
  30 H :    0.152283   -0.000138
  31 H :    0.113340    0.000017
Sum of atomic charges         :   -2.0000000

LOEWDIN ATOMIC CHARGES AND SPIN POPULATIONS
-------------------------------------------
   0 V :   -0.245189    1.146463
   1 S :    0.029781   -0.018264
   2 S :    0.150510   -0.013073
   3 S :    0.029797   -0.018234
   4 S :    0.150542   -0.013489
   5 O :   -0.351619   -0.123258
   6 C :   -0.634500    0.008600
   7 C :   -0.633755    0.007495
   8 C :   -0.464466    0.013808
   9 C :   -0.464549    0.013876
  10 S :    0.361923   -0.001082
  11 S :    0.361922   -0.001163
  12 S :    0.304494   -0.000884
  13 S :    0.304541   -0.000878
  14 C :   -0.310006    0.000038
  15 C :   -0.291212    0.000078
  16 C :   -0.310095    0.000139
  17 C :   -0.291323    0.000083
  18 C :   -0.178512   -0.000030
  19 H :    0.064366   -0.000020
  20 H :    0.044765   -0.000008
  21 H :    0.048994    0.000025
  22 H :    0.055590    0.000015
  23 H :    0.044815   -0.000019
  24 H :    0.064533   -0.000022
  25 C :   -0.195997   -0.000025
  26 H :    0.057438   -0.000014
  27 H :    0.072722   -0.000063
  28 H :    0.049581   -0.000011
  29 H :    0.044624   -0.000007
  30 H :    0.072829   -0.000062
  31 H :    0.057455   -0.000014

  Mayer bond orders larger than 0.100000
B(  0-V ,  1-S ) :   0.8004 B(  0-V ,  2-S ) :   0.7840 B(  0-V ,  3-S ) :   0.8020
B(  0-V ,  4-S ) :   0.7810 B(  0-V ,  5-O ) :   2.1053 B(  1-S ,  8-C ) :   1.0213
B(  2-S ,  6-C ) :   1.1901 B(  2-S ,  7-C ) :   0.1013 B(  3-S ,  9-C ) :   1.0215
B(  4-S ,  6-C ) :   0.1021 B(  4-S ,  7-C ) :   1.1918 B(  6-C ,  7-C ) :   1.2395
B(  6-C , 10-S ) :   1.0454 B(  7-C , 11-S ) :   1.0447 B(  8-C ,  9-C ) :   1.8264
B(  8-C , 13-S ) :   0.8673 B(  9-C , 12-S ) :   0.8678 B( 10-S , 16-C ) :   0.9667
B( 11-S , 14-C ) :   0.9671 B( 12-S , 15-C ) :   1.0406 B( 13-S , 17-C ) :   1.0409
B( 14-C , 18-C ) :   0.8966 B( 14-C , 23-H ) :   0.9636 B( 14-C , 24-H ) :   0.9680
B( 15-C , 25-C ) :   0.8645 B( 15-C , 30-H ) :   0.9734 B( 15-C , 31-H ) :   0.9720
B( 16-C , 18-C ) :   0.8964 B( 16-C , 19-H ) :   0.9680 B( 16-C , 20-H ) :   0.9636
B( 17-C , 25-C ) :   0.8647 B( 17-C , 26-H ) :   0.9721 B( 17-C , 27-H ) :   0.9733
B( 18-C , 21-H ) :   0.9511 B( 18-C , 22-H ) :   0.9808 B( 25-C , 28-H ) :   0.9647
B( 25-C , 29-H ) :   0.9503

FINAL SINGLE POINT ENERGY     -4592.403987561916

DIPOLE MOMENT
-------------
                                X             Y             Z
Electronic contribution:      7.86058       9.30857      23.75541
Nuclear contribution   :     -9.28804      -9.80899     -26.46196
                        -----------------------------------------
Total Dipole Moment    :     -1.42745      -0.50042      -2.70655
                        -----------------------------------------
Magnitude (a.u.)       :      3.10056
Magnitude (Debye)      :      7.88099

Rotational constants in cm-1:     0.012768     0.002548     0.002431
Rotational constants in MHz :   382.763950    76.394755    72.875422

                             ****ORCA TERMINATED NORMALLY****
TOTAL RUN TIME: 0 days 0 hours 27 minutes 40 seconds 128 msec
