                         Program Version 5.0.4 -  RELEASE  -
|  1> ! nofrozencore ReducedPop printbasis
|  2> ! B3LYP TZVP
|  3>
|  4> %basis
|  5> newgto V "CP(PPP)" end
|  6> end
|  7>
|  8> %pal
|  9> nprocs 4
| 10> end
| 11>
| 12> % sym SymThresh 1e-2 end
| 13> * xyz -2 2
| 14> V -0.37052802163052423 -0.9965539592581691 -0.3372194426830063
| 15> S -0.6577167077827581 0.5720324647624498 -2.197289908048596
| 16> S 2.0249887916834846 -0.8753570670054778 -0.8301448855150697
| 17> S -2.264600978949453 0.22823796581479966 0.6187784669434633
| 18> S 0.4050954640793652 -1.2451937006382974 1.9748725564101666
| 19> O -0.9031906846440749 -2.4205119736445746 -0.8249277045538062
| 20> C 2.808533100955641 -1.485544512795494 0.6299437049552056
| 21> C 2.1261211443185926 -1.6166710984003738 1.798385840068623
| 22> C -2.267554320983912 1.2587732471456266 -1.9569939901794908
| 23> C -2.908330757388302 1.1276455733954966 -0.7646685948453272
| 24> S 4.550479390216308 -1.8333972135836134 0.47726185870490095
| 25> S 2.920550540209919 -2.217123240938444 3.329572206410481
| 26> S -4.571912135635811 1.8511501872802725 -0.4675036765633071
| 27> S -2.9133541050678566 2.201676122311342 -3.30797386729919
| 28> C 4.047195641569519 -0.7962946510236021 3.7144433314679732
| 29> C -4.1194978095824455 3.653110905208799 -0.44897428819809504
| 30> C 5.390565615980231 -0.5656695485964303 1.5166990137002718
| 31> C -2.963539364681937 3.952507655148895 -2.7462508283563554
| 32> C 5.419621661212105 -0.8229032433143011 3.0076271290466416
| 33> H 4.720853536127617 0.30648757181278224 1.3917218276701986
| 34> H 6.366183204736792 -0.30462568135916296 1.059427615054299
| 35> H 6.047748691819078 -0.049865040074498 3.479499615096257
| 36> H 5.86438677448643 -1.795908600570955 3.2674443460837876
| 37> H 4.3069895633006805 -1.0477645862387708 4.765315428604167
| 38> H 3.5085821113319446 0.16993950507710068 3.7149447199210943
| 39> C -4.100282764190543 4.343220421282438 -1.841004234089416
| 40> H -2.666312842661034 4.66229752723141 -3.575543509453593
| 41> H -2.105055906173781 3.9138860976610195 -2.0143775952441683
| 42> H -5.114106878642403 4.1351435526158395 -2.2408519818832535
| 43> H -4.049497350940434 5.429835661559523 -1.66358034375165
| 44> H -3.3409969000807345 3.929675167583262 0.31913559641691164
| 45> H -5.127486695964218 4.028516798317174 -0.08473225243844214
| 46> *
| 47>
| 48> % eprnmr
| 49> gtensor true
| 50> Nuclei = all H {aiso,adip,aorb,fgrad,rho}
| 51> Nuclei = all V {aiso,adip,aorb,fgrad,rho}
| 52> end
| 53>
| 54>                          ****END OF INPUT****

CARTESIAN COORDINATES (ANGSTROEM)
---------------------------------
  V     -0.370853   -0.997646   -0.337550
  S     -0.658042    0.570940   -2.197620
  S      2.024664   -0.876450   -0.830475
  S     -2.264926    0.227145    0.618448
  S      0.404771   -1.246286    1.974542
  O     -0.903516   -2.421604   -0.825258
  C      2.808208   -1.486637    0.629614
  C      2.125796   -1.617764    1.798056
  C     -2.267879    1.257681   -1.957324
  C     -2.908656    1.126553   -0.764999
  S      4.550154   -1.834490    0.476932
  S      2.920226   -2.218216    3.329242
  S     -4.572237    1.850058   -0.467834
  S     -2.913679    2.200584   -3.308304
  C      4.046871   -0.797387    3.714113
  C     -4.119823    3.652018   -0.449304
  C      5.390241   -0.566762    1.516369
  C     -2.963864    3.951415   -2.746581
  C      5.419297   -0.823996    3.007297
  H      4.720529    0.305395    1.391392
  H      6.365858   -0.305718    1.059097
  H      6.047424   -0.050958    3.479169
  H      5.864062   -1.797001    3.267114
  H      4.306665   -1.048857    4.764985
  H      3.508257    0.168847    3.714615
  C     -4.100608    4.342128   -1.841334
  H     -2.666638    4.661205   -3.575874
  H     -2.105381    3.912794   -2.014708
  H     -5.114432    4.134051   -2.241182
  H     -4.049822    5.428743   -1.663911
  H     -3.341322    3.928583    0.318805
  H     -5.127812    4.027424   -0.085062

 Total Charge           Charge          ....   -2
 Multiplicity           Mult            ....    2
 Number of Electrons    NEL             ....  233
 Basis Dimension        Dim             ....  517

ORBITAL ENERGIES
----------------
                 SPIN UP ORBITALS
  NO   OCC          E(Eh)            E(eV)
   0   1.0000    -196.640497     -5350.8600
   1   1.0000     -88.681193     -2413.1380
   2   1.0000     -88.679357     -2413.0880
   3   1.0000     -88.674874     -2412.9660
   4   1.0000     -88.674352     -2412.9518
   5   1.0000     -88.614189     -2411.3147
   6   1.0000     -88.613368     -2411.2923
   7   1.0000     -88.611359     -2411.2377
   8   1.0000     -88.610856     -2411.2240
   9   1.0000     -22.016301      -599.0940
  10   1.0000     -18.857585      -513.1410
  11   1.0000     -18.523130      -504.0400
  12   1.0000     -18.517348      -503.8827
  13   1.0000     -18.517314      -503.8817
  14   1.0000     -10.026165      -272.8258
  15   1.0000     -10.020702      -272.6772
  16   1.0000     -10.019176      -272.6356
  17   1.0000     -10.016168      -272.5538
  18   1.0000     -10.009362      -272.3686
  19   1.0000     -10.006631      -272.2943
  20   1.0000      -9.994136      -271.9543
  21   1.0000      -9.993228      -271.9296
  22   1.0000      -9.990351      -271.8513
  23   1.0000      -9.989859      -271.8379
  24   1.0000      -7.733994      -210.4527
  25   1.0000      -7.732456      -210.4108
  26   1.0000      -7.728950      -210.3154
  27   1.0000      -7.728651      -210.3073
  28   1.0000      -7.668448      -208.6691
  29   1.0000      -7.667688      -208.6484
  30   1.0000      -7.665892      -208.5995
  31   1.0000      -7.665431      -208.5870
  32   1.0000      -5.699278      -155.0852
  33   1.0000      -5.697727      -155.0430
  34   1.0000      -5.695543      -154.9836
  35   1.0000      -5.694177      -154.9464
  36   1.0000      -5.693932      -154.9398
  37   1.0000      -5.693862      -154.9379
  38   1.0000      -5.690177      -154.8376
  39   1.0000      -5.689799      -154.8273
  40   1.0000      -5.688683      -154.7969
  41   1.0000      -5.687182      -154.7561
  42   1.0000      -5.683731      -154.6622
  43   1.0000      -5.683456      -154.6547
  44   1.0000      -5.633297      -153.2898
  45   1.0000      -5.632530      -153.2689
  46   1.0000      -5.630728      -153.2199
  47   1.0000      -5.630290      -153.2080
  48   1.0000      -5.626879      -153.1152
  49   1.0000      -5.626465      -153.1039
  50   1.0000      -5.626124      -153.0946
  51   1.0000      -5.625710      -153.0834
  52   1.0000      -5.624338      -153.0460
  53   1.0000      -5.623859      -153.0330
  54   1.0000      -5.623859      -153.0330
  55   1.0000      -5.623375      -153.0198
  56   1.0000      -2.409987       -65.5791
  57   1.0000      -1.451354       -39.4933
  58   1.0000      -1.439763       -39.1779
  59   1.0000      -1.438691       -39.1488
  60   1.0000      -0.644357       -17.5338
  61   1.0000      -0.644038       -17.5252
  62   1.0000      -0.618618       -16.8335
  63   1.0000      -0.594469       -16.1763
  64   1.0000      -0.593976       -16.1629
  65   1.0000      -0.575192       -15.6518
  66   1.0000      -0.574415       -15.6306
  67   1.0000      -0.492011       -13.3883
  68   1.0000      -0.490096       -13.3362
  69   1.0000      -0.486612       -13.2414
  70   1.0000      -0.484765       -13.1911
  71   1.0000      -0.422257       -11.4902
  72   1.0000      -0.419279       -11.4092
  73   1.0000      -0.410966       -11.1829
  74   1.0000      -0.405067       -11.0224
  75   1.0000      -0.374293       -10.1850
  76   1.0000      -0.370859       -10.0916
  77   1.0000      -0.291846        -7.9415
  78   1.0000      -0.290225        -7.8974
  79   1.0000      -0.280745        -7.6395
  80   1.0000      -0.279317        -7.6006
  81   1.0000      -0.259875        -7.0716
  82   1.0000      -0.254083        -6.9139
  83   1.0000      -0.238851        -6.4995
  84   1.0000      -0.235472        -6.4075
  85   1.0000      -0.196771        -5.3544
  86   1.0000      -0.195226        -5.3124
  87   1.0000      -0.189710        -5.1623
  88   1.0000      -0.185470        -5.0469
  89   1.0000      -0.183092        -4.9822
  90   1.0000      -0.180578        -4.9138
  91   1.0000      -0.176694        -4.8081
  92   1.0000      -0.155653        -4.2355
  93   1.0000      -0.151317        -4.1175
  94   1.0000      -0.150183        -4.0867
  95   1.0000      -0.136914        -3.7256
  96   1.0000      -0.129848        -3.5333
  97   1.0000      -0.099318        -2.7026
  98   1.0000      -0.095067        -2.5869
  99   1.0000      -0.090997        -2.4762
 100   1.0000      -0.082805        -2.2532
 101   1.0000      -0.080569        -2.1924
 102   1.0000      -0.079658        -2.1676
 103   1.0000      -0.069702        -1.8967
 104   1.0000      -0.050213        -1.3664
 105   1.0000      -0.040190        -1.0936
 106   1.0000      -0.036765        -1.0004
 107   1.0000      -0.036325        -0.9884
 108   1.0000      -0.032406        -0.8818
 109   1.0000      -0.013676        -0.3721
 110   1.0000      -0.004675        -0.1272
 111   1.0000      -0.003560        -0.0969
 112   1.0000       0.005821         0.1584
 113   1.0000       0.010154         0.2763
 114   1.0000       0.015957         0.4342
 115   1.0000       0.033162         0.9024
 116   1.0000       0.059306         1.6138
 117   0.0000       0.185645         5.0517
 118   0.0000       0.191878         5.2213
 119   0.0000       0.195017         5.3067
 120   0.0000       0.196582         5.3493
 121   0.0000       0.211005         5.7418

                 SPIN DOWN ORBITALS
  NO   OCC          E(Eh)            E(eV)
   0   1.0000    -196.640639     -5350.8638
   1   1.0000     -88.681207     -2413.1383
   2   1.0000     -88.679370     -2413.0883
   3   1.0000     -88.674887     -2412.9663
   4   1.0000     -88.674365     -2412.9522
   5   1.0000     -88.614349     -2411.3190
   6   1.0000     -88.613528     -2411.2967
   7   1.0000     -88.611518     -2411.2420
   8   1.0000     -88.611015     -2411.2283
   9   1.0000     -22.001634      -598.6949
  10   1.0000     -18.861157      -513.2382
  11   1.0000     -18.518002      -503.9005
  12   1.0000     -18.501859      -503.4612
  13   1.0000     -18.501180      -503.4427
  14   1.0000     -10.026161      -272.8257
  15   1.0000     -10.020699      -272.6771
  16   1.0000     -10.019171      -272.6355
  17   1.0000     -10.016164      -272.5537
  18   1.0000     -10.009361      -272.3686
  19   1.0000     -10.006630      -272.2943
  20   1.0000      -9.993881      -271.9473
  21   1.0000      -9.992975      -271.9227
  22   1.0000      -9.990098      -271.8444
  23   1.0000      -9.989606      -271.8310
  24   1.0000      -7.734008      -210.4531
  25   1.0000      -7.732470      -210.4112
  26   1.0000      -7.728964      -210.3158
  27   1.0000      -7.728665      -210.3077
  28   1.0000      -7.668597      -208.6731
  29   1.0000      -7.667837      -208.6525
  30   1.0000      -7.666040      -208.6036
  31   1.0000      -7.665578      -208.5910
  32   1.0000      -5.699295      -155.0857
  33   1.0000      -5.697744      -155.0435
  34   1.0000      -5.695564      -154.9842
  35   1.0000      -5.694193      -154.9469
  36   1.0000      -5.693952      -154.9403
  37   1.0000      -5.693878      -154.9383
  38   1.0000      -5.690197      -154.8381
  39   1.0000      -5.689820      -154.8279
  40   1.0000      -5.688699      -154.7974
  41   1.0000      -5.687199      -154.7565
  42   1.0000      -5.683747      -154.6626
  43   1.0000      -5.683473      -154.6552
  44   1.0000      -5.633468      -153.2945
  45   1.0000      -5.632700      -153.2736
  46   1.0000      -5.630900      -153.2246
  47   1.0000      -5.630462      -153.2127
  48   1.0000      -5.627266      -153.1257
  49   1.0000      -5.626607      -153.1078
  50   1.0000      -5.626514      -153.1052
  51   1.0000      -5.625847      -153.0871
  52   1.0000      -5.624728      -153.0566
  53   1.0000      -5.624251      -153.0436
  54   1.0000      -5.623993      -153.0366
  55   1.0000      -5.623506      -153.0234
  56   1.0000      -2.365811       -64.3770
  57   1.0000      -1.432537       -38.9813
  58   1.0000      -1.378363       -37.5072
  59   1.0000      -1.377716       -37.4896
  60   1.0000      -0.644305       -17.5324
  61   1.0000      -0.643988       -17.5238
  62   1.0000      -0.626268       -17.0416
  63   1.0000      -0.594285       -16.1713
  64   1.0000      -0.593772       -16.1574
  65   1.0000      -0.575185       -15.6516
  66   1.0000      -0.574405       -15.6304
  67   1.0000      -0.492033       -13.3889
  68   1.0000      -0.490131       -13.3371
  69   1.0000      -0.486624       -13.2417
  70   1.0000      -0.484792       -13.1919
  71   1.0000      -0.422496       -11.4967
  72   1.0000      -0.419582       -11.4174
  73   1.0000      -0.410974       -11.1832
  74   1.0000      -0.405167       -11.0252
  75   1.0000      -0.374258       -10.1841
  76   1.0000      -0.370868       -10.0918
  77   1.0000      -0.291826        -7.9410
  78   1.0000      -0.290204        -7.8968
  79   1.0000      -0.280729        -7.6390
  80   1.0000      -0.279301        -7.6002
  81   1.0000      -0.259645        -7.0653
  82   1.0000      -0.254024        -6.9124
  83   1.0000      -0.238781        -6.4976
  84   1.0000      -0.235429        -6.4063
  85   1.0000      -0.196537        -5.3480
  86   1.0000      -0.195174        -5.3109
  87   1.0000      -0.189117        -5.1461
  88   1.0000      -0.185218        -5.0400
  89   1.0000      -0.182966        -4.9788
  90   1.0000      -0.179874        -4.8946
  91   1.0000      -0.175788        -4.7834
  92   1.0000      -0.155418        -4.2291
  93   1.0000      -0.150888        -4.1059
  94   1.0000      -0.149791        -4.0760
  95   1.0000      -0.136586        -3.7167
  96   1.0000      -0.129648        -3.5279
  97   1.0000      -0.098236        -2.6731
  98   1.0000      -0.094227        -2.5640
  99   1.0000      -0.090958        -2.4751
 100   1.0000      -0.082900        -2.2558
 101   1.0000      -0.082154        -2.2355
 102   1.0000      -0.079639        -2.1671
 103   1.0000      -0.070796        -1.9265
 104   1.0000      -0.046204        -1.2573
 105   1.0000      -0.039943        -1.0869
 106   1.0000      -0.036436        -0.9915
 107   1.0000      -0.035290        -0.9603
 108   1.0000      -0.032317        -0.8794
 109   1.0000      -0.012776        -0.3477
 110   1.0000      -0.005962        -0.1622
 111   1.0000      -0.002499        -0.0680
 112   1.0000       0.006638         0.1806
 113   1.0000       0.011055         0.3008
 114   1.0000       0.033421         0.9094
 115   1.0000       0.058517         1.5923
 116   0.0000       0.183309         4.9881
 117   0.0000       0.188305         5.1240
 118   0.0000       0.192449         5.2368
 119   0.0000       0.195178         5.3111
 120   0.0000       0.196865         5.3570

MULLIKEN ATOMIC CHARGES AND SPIN POPULATIONS
--------------------------------------------
   0 V :    0.447153    1.199045
   1 S :   -0.255696   -0.023928
   2 S :   -0.253778   -0.023909
   3 S :   -0.252192   -0.024366
   4 S :   -0.254173   -0.024193
   5 O :   -0.506238   -0.138665
   6 C :   -0.113807    0.008708
   7 C :   -0.117097    0.008975
   8 C :   -0.114149    0.008755
   9 C :   -0.115453    0.009094
  10 S :   -0.037972   -0.000057
  11 S :   -0.043767   -0.000297
  12 S :   -0.040961   -0.000346
  13 S :   -0.029744   -0.000010
  14 C :   -0.331783    0.000244
  15 C :   -0.328181    0.000224
  16 C :   -0.355930    0.000256
  17 C :   -0.371642    0.000264
  18 C :   -0.073684    0.000183
  19 H :    0.150965   -0.000106
  20 H :    0.108581    0.000021
  21 H :    0.045389    0.000043
  22 H :    0.076152    0.000008
  23 H :    0.085647    0.000023
  24 H :    0.145152   -0.000099
  25 C :   -0.060237    0.000245
  26 H :    0.109285    0.000033
  27 H :    0.154004   -0.000117
  28 H :    0.072744   -0.000007
  29 H :    0.046747    0.000049
  30 H :    0.143684   -0.000098
  31 H :    0.070983    0.000029
Sum of atomic charges         :   -2.0000000

LOEWDIN ATOMIC CHARGES AND SPIN POPULATIONS
-------------------------------------------
   0 V :   -0.243018    1.153044
   1 S :    0.088094   -0.016152
   2 S :    0.089186   -0.016156
   3 S :    0.089119   -0.016528
   4 S :    0.087887   -0.016423
   5 O :   -0.350729   -0.124127
   6 C :   -0.566200    0.009899
   7 C :   -0.541283    0.010019
   8 C :   -0.573753    0.009882
   9 C :   -0.535597    0.010131
  10 S :    0.345626   -0.000970
  11 S :    0.329655   -0.001105
  12 S :    0.327089   -0.001138
  13 S :    0.352408   -0.000936
  14 C :   -0.293542    0.000158
  15 C :   -0.299034    0.000161
  16 C :   -0.305953    0.000163
  17 C :   -0.318156    0.000192
  18 C :   -0.186065   -0.000035
  19 H :    0.072502   -0.000026
  20 H :    0.052088    0.000003
  21 H :    0.047575    0.000018
  22 H :    0.053101    0.000012
  23 H :    0.046958    0.000004
  24 H :    0.065691   -0.000032
  25 C :   -0.187862   -0.000034
  26 H :    0.057002    0.000007
  27 H :    0.079556   -0.000029
  28 H :    0.052562    0.000010
  29 H :    0.048700    0.000020
  30 H :    0.068316   -0.000037
  31 H :    0.048078    0.000006

  Mayer bond orders larger than 0.100000
B(  0-V ,  1-S ) :   0.7929 B(  0-V ,  2-S ) :   0.7937 B(  0-V ,  3-S ) :   0.7852
B(  0-V ,  4-S ) :   0.7850 B(  0-V ,  5-O ) :   2.1084 B(  1-S ,  8-C ) :   1.1261
B(  2-S ,  6-C ) :   1.1325 B(  3-S ,  9-C ) :   1.1433 B(  4-S ,  7-C ) :   1.1405
B(  6-C ,  7-C ) :   1.5150 B(  6-C , 10-S ) :   0.9660 B(  7-C , 11-S ) :   0.9417
B(  8-C ,  9-C ) :   1.5123 B(  8-C , 13-S ) :   0.9786 B(  9-C , 12-S ) :   0.9321
B( 10-S , 16-C ) :   0.9909 B( 11-S , 14-C ) :   1.0360 B( 12-S , 15-C ) :   1.0547
B( 13-S , 17-C ) :   0.9919 B( 14-C , 18-C ) :   0.8738 B( 14-C , 23-H ) :   0.9815
B( 14-C , 24-H ) :   0.9568 B( 15-C , 25-C ) :   0.8705 B( 15-C , 30-H ) :   0.9448
B( 15-C , 31-H ) :   0.9856 B( 16-C , 18-C ) :   0.8771 B( 16-C , 19-H ) :   0.9884
B( 16-C , 20-H ) :   0.9573 B( 17-C , 25-C ) :   0.8734 B( 17-C , 26-H ) :   0.9491
B( 17-C , 27-H ) :   0.9945 B( 18-C , 21-H ) :   0.9534 B( 18-C , 22-H ) :   0.9716
B( 25-C , 28-H ) :   0.9689 B( 25-C , 29-H ) :   0.9538

FINAL SINGLE POINT ENERGY     -4592.692384975264

DIPOLE MOMENT
-------------
                                X             Y             Z
Electronic contribution:     -8.64277     -23.85930      -8.40866
Nuclear contribution   :      9.60364      26.53529       9.45443
                        -----------------------------------------
Total Dipole Moment    :      0.96087       2.67599       1.04577
                        -----------------------------------------
Magnitude (a.u.)       :      3.02949
Magnitude (Debye)      :      7.70035

Rotational constants in cm-1:     0.012768     0.002548     0.002431
Rotational constants in MHz :   382.765851    76.394805    72.879027

                             ****ORCA TERMINATED NORMALLY****
TOTAL RUN TIME: 0 days 0 hours 42 minutes 52 seconds 711 msec
