                         Program Version 5.0.4 -  RELEASE  -
|  1> ! nofrozencore ReducedPop printbasis
|  2> ! B3LYP TZVP
|  3>
|  4> %basis
|  5> newgto V "CP(PPP)" end
|  6> end
|  7>
|  8> %pal
|  9> nprocs 4
| 10> end
| 11>
| 12> % sym SymThresh 1e-2 end
| 13> * xyz -2 2
| 14> V -0.493410495005978 -0.9866925042808242 0.2217522759454603
| 15> S -1.7538279235645748 0.8602908462989171 1.0020910376175738
| 16> S -1.3722655511776738 -0.3909580677291202 -2.089630310015996
| 17> S 0.763144718201435 -0.15269879619992535 2.04710504706362
| 18> S 1.7397737324862148 -1.6790219767080325 -0.7831774164558353
| 19> O -1.325751229809272 -2.1100925513600686 1.1082670546194906
| 20> C -0.056218926200358295 -1.2273206368397458 -2.9434499484763044
| 21> C 1.1209824233312373 -1.7133664436811926 -2.449621154487095
| 22> C -1.3197033322566518 1.4017982478800324 2.6444580800814674
| 23> C -0.14827826794784135 0.9315538735535617 3.130718915263991
| 24> S -0.5877780643809243 -1.4324009065134744 -4.6487211756522875
| 25> S 2.3173195609989024 -2.625883068713892 -3.4335898581022417
| 26> S 0.5226162782378847 1.5132653513174492 4.714605516668904
| 27> S -2.289655708184495 2.642583019756339 3.548520714810276
| 28> C 2.891041043895496 -1.286182011974088 -4.5404226978812146
| 29> C 0.951766717547144 3.310169268839132 4.47011540030037
| 30> C 0.6385880962320879 -0.3623415855271727 -5.484835505991527
| 31> C -1.265115957486776 4.199298831734846 3.552792047898761
| 32> C 2.0023562822137566 -0.9985847824052484 -5.749719781894485
| 33> H 0.732698131026428 0.5439498906793179 -4.881986947163966
| 34> H 0.1864509124795874 -0.08170253096600891 -6.442462161504193
| 35> H 2.5602003996650238 -0.3184097791146674 -6.41520527197573
| 36> H 1.8516126973008933 -1.9320436967040795 -6.303338046456507
| 37> H 3.8814529216451503 -1.5936717344066473 -4.893617786578314
| 38> H 3.019494735242593 -0.3957661114362435 -3.9204946503969236
| 39> C -0.1903225942241857 4.312871141310963 4.634460313897277
| 40> H -2.006388308348375 4.995044148200388 3.6775563580249866
| 41> H -0.827755129019475 4.3038172539028885 2.557953563789959
| 42> H -0.6459432817781603 4.197234599412451 5.624549614729579
| 43> H 0.23388676868356528 5.329248212336827 4.592429761423085
| 44> H 1.4138023669912179 3.4046248856114913 3.4854799945668846
| 45> H 1.725049303064971 3.4961439138672477 5.222272944038071
| 46> *
| 47>
| 48> % eprnmr
| 49> gtensor true
| 50> Nuclei = all H {aiso,adip,aorb,fgrad,rho}
| 51> Nuclei = all V {aiso,adip,aorb,fgrad,rho}
| 52> end
| 53>
| 54>                          ****END OF INPUT****

CARTESIAN COORDINATES (ANGSTROEM)
---------------------------------
  V     -0.493953   -0.987705    0.222049
  S     -1.754371    0.859278    1.002388
  S     -1.372808   -0.391971   -2.089333
  S      0.762602   -0.153711    2.047402
  S      1.739231   -1.680034   -0.782880
  O     -1.326294   -2.111105    1.108564
  C     -0.056762   -1.228333   -2.943153
  C      1.120439   -1.714379   -2.449324
  C     -1.320246    1.400786    2.644755
  C     -0.148821    0.930541    3.131016
  S     -0.588321   -1.433413   -4.648424
  S      2.316777   -2.626896   -3.433293
  S      0.522073    1.512253    4.714903
  S     -2.290199    2.641571    3.548818
  C      2.890498   -1.287195   -4.540126
  C      0.951224    3.309157    4.470413
  C      0.638045   -0.363354   -5.484538
  C     -1.265659    4.198286    3.553089
  C      2.001813   -0.999597   -5.749423
  H      0.732155    0.542937   -4.881690
  H      0.185908   -0.082715   -6.442165
  H      2.559657   -0.319422   -6.414908
  H      1.851070   -1.933056   -6.303041
  H      3.880910   -1.594684   -4.893321
  H      3.018952   -0.396779   -3.920197
  C     -0.190866    4.311859    4.634758
  H     -2.006931    4.994032    3.677854
  H     -0.828298    4.302805    2.558251
  H     -0.646486    4.196222    5.624847
  H      0.233344    5.328236    4.592727
  H      1.413259    3.403612    3.485777
  H      1.724506    3.495131    5.222570

 Total Charge           Charge          ....   -2
 Multiplicity           Mult            ....    2
 Number of Electrons    NEL             ....  233
 Basis Dimension        Dim             ....  517

ORBITAL ENERGIES
----------------
                 SPIN UP ORBITALS
  NO   OCC          E(Eh)            E(eV)
   0   1.0000    -196.644766     -5350.9761
   1   1.0000     -88.682081     -2413.1621
   2   1.0000     -88.682048     -2413.1612
   3   1.0000     -88.672665     -2412.9059
   4   1.0000     -88.672598     -2412.9040
   5   1.0000     -88.614549     -2411.3245
   6   1.0000     -88.614544     -2411.3243
   7   1.0000     -88.613412     -2411.2935
   8   1.0000     -88.613337     -2411.2915
   9   1.0000     -22.018476      -599.1532
  10   1.0000     -18.849687      -512.9261
  11   1.0000     -18.525948      -504.1167
  12   1.0000     -18.519389      -503.9382
  13   1.0000     -18.519272      -503.9350
  14   1.0000     -10.020286      -272.6659
  15   1.0000     -10.020278      -272.6656
  16   1.0000     -10.011340      -272.4224
  17   1.0000     -10.011332      -272.4222
  18   1.0000     -10.010186      -272.3910
  19   1.0000     -10.000098      -272.1165
  20   1.0000      -9.995076      -271.9799
  21   1.0000      -9.994397      -271.9614
  22   1.0000      -9.992770      -271.9171
  23   1.0000      -9.992011      -271.8964
  24   1.0000      -7.734877      -210.4767
  25   1.0000      -7.734835      -210.4756
  26   1.0000      -7.727049      -210.2637
  27   1.0000      -7.727005      -210.2625
  28   1.0000      -7.668418      -208.6683
  29   1.0000      -7.668404      -208.6679
  30   1.0000      -7.667772      -208.6507
  31   1.0000      -7.667714      -208.6491
  32   1.0000      -5.700237      -155.1113
  33   1.0000      -5.700197      -155.1102
  34   1.0000      -5.696244      -155.0027
  35   1.0000      -5.696204      -155.0016
  36   1.0000      -5.692221      -154.8932
  37   1.0000      -5.692181      -154.8921
  38   1.0000      -5.689656      -154.8234
  39   1.0000      -5.689618      -154.8224
  40   1.0000      -5.688419      -154.7897
  41   1.0000      -5.688368      -154.7884
  42   1.0000      -5.681694      -154.6067
  43   1.0000      -5.681646      -154.6054
  44   1.0000      -5.633339      -153.2910
  45   1.0000      -5.633330      -153.2907
  46   1.0000      -5.632637      -153.2719
  47   1.0000      -5.632595      -153.2707
  48   1.0000      -5.627010      -153.1187
  49   1.0000      -5.626992      -153.1182
  50   1.0000      -5.626259      -153.0983
  51   1.0000      -5.626256      -153.0982
  52   1.0000      -5.626194      -153.0965
  53   1.0000      -5.626135      -153.0949
  54   1.0000      -5.625733      -153.0840
  55   1.0000      -5.625655      -153.0818
  56   1.0000      -2.411022       -65.6072
  57   1.0000      -1.448249       -39.4089
  58   1.0000      -1.441310       -39.2200
  59   1.0000      -1.440633       -39.2016
  60   1.0000      -0.645098       -17.5540
  61   1.0000      -0.643825       -17.5194
  62   1.0000      -0.608007       -16.5447
  63   1.0000      -0.598173       -16.2771
  64   1.0000      -0.589940       -16.0531
  65   1.0000      -0.580095       -15.7852
  66   1.0000      -0.572963       -15.5911
  67   1.0000      -0.499096       -13.5811
  68   1.0000      -0.491919       -13.3858
  69   1.0000      -0.483154       -13.1473
  70   1.0000      -0.479722       -13.0539
  71   1.0000      -0.422233       -11.4895
  72   1.0000      -0.417878       -11.3710
  73   1.0000      -0.417029       -11.3479
  74   1.0000      -0.406678       -11.0663
  75   1.0000      -0.378039       -10.2870
  76   1.0000      -0.374378       -10.1873
  77   1.0000      -0.296923        -8.0797
  78   1.0000      -0.289503        -7.8778
  79   1.0000      -0.281223        -7.6525
  80   1.0000      -0.274424        -7.4675
  81   1.0000      -0.261036        -7.1032
  82   1.0000      -0.256446        -6.9783
  83   1.0000      -0.244012        -6.6399
  84   1.0000      -0.237952        -6.4750
  85   1.0000      -0.195947        -5.3320
  86   1.0000      -0.193631        -5.2690
  87   1.0000      -0.193064        -5.2535
  88   1.0000      -0.191332        -5.2064
  89   1.0000      -0.188805        -5.1377
  90   1.0000      -0.181936        -4.9507
  91   1.0000      -0.179490        -4.8842
  92   1.0000      -0.153241        -4.1699
  93   1.0000      -0.150172        -4.0864
  94   1.0000      -0.145182        -3.9506
  95   1.0000      -0.144593        -3.9346
  96   1.0000      -0.140836        -3.8323
  97   1.0000      -0.096503        -2.6260
  98   1.0000      -0.091274        -2.4837
  99   1.0000      -0.086444        -2.3523
 100   1.0000      -0.081085        -2.2064
 101   1.0000      -0.079905        -2.1743
 102   1.0000      -0.067245        -1.8298
 103   1.0000      -0.063787        -1.7357
 104   1.0000      -0.049131        -1.3369
 105   1.0000      -0.045077        -1.2266
 106   1.0000      -0.040592        -1.1046
 107   1.0000      -0.038780        -1.0553
 108   1.0000      -0.025180        -0.6852
 109   1.0000      -0.011569        -0.3148
 110   1.0000      -0.008474        -0.2306
 111   1.0000       0.003674         0.1000
 112   1.0000       0.012178         0.3314
 113   1.0000       0.020071         0.5462
 114   1.0000       0.026091         0.7100
 115   1.0000       0.032522         0.8850
 116   1.0000       0.058185         1.5833
 117   0.0000       0.183300         4.9879
 118   0.0000       0.191461         5.2099
 119   0.0000       0.194468         5.2918
 120   0.0000       0.197621         5.3775
 121   0.0000       0.199386         5.4256

                 SPIN DOWN ORBITALS
  NO   OCC          E(Eh)            E(eV)
   0   1.0000    -196.644866     -5350.9788
   1   1.0000     -88.682093     -2413.1624
   2   1.0000     -88.682060     -2413.1615
   3   1.0000     -88.672659     -2412.9057
   4   1.0000     -88.672591     -2412.9039
   5   1.0000     -88.614696     -2411.3285
   6   1.0000     -88.614691     -2411.3283
   7   1.0000     -88.613580     -2411.2981
   8   1.0000     -88.613506     -2411.2961
   9   1.0000     -22.003301      -598.7402
  10   1.0000     -18.853866      -513.0398
  11   1.0000     -18.520276      -503.9623
  12   1.0000     -18.503441      -503.5042
  13   1.0000     -18.502810      -503.4871
  14   1.0000     -10.020286      -272.6658
  15   1.0000     -10.020277      -272.6656
  16   1.0000     -10.011330      -272.4222
  17   1.0000     -10.011322      -272.4219
  18   1.0000     -10.010187      -272.3910
  19   1.0000     -10.000098      -272.1165
  20   1.0000      -9.994845      -271.9736
  21   1.0000      -9.994167      -271.9551
  22   1.0000      -9.992585      -271.9121
  23   1.0000      -9.991828      -271.8915
  24   1.0000      -7.734890      -210.4771
  25   1.0000      -7.734848      -210.4759
  26   1.0000      -7.727042      -210.2635
  27   1.0000      -7.726997      -210.2623
  28   1.0000      -7.668553      -208.6719
  29   1.0000      -7.668538      -208.6715
  30   1.0000      -7.667934      -208.6551
  31   1.0000      -7.667877      -208.6535
  32   1.0000      -5.700250      -155.1117
  33   1.0000      -5.700210      -155.1106
  34   1.0000      -5.696264      -155.0032
  35   1.0000      -5.696223      -155.0021
  36   1.0000      -5.692206      -154.8928
  37   1.0000      -5.692166      -154.8917
  38   1.0000      -5.689676      -154.8239
  39   1.0000      -5.689637      -154.8229
  40   1.0000      -5.688405      -154.7894
  41   1.0000      -5.688354      -154.7880
  42   1.0000      -5.681696      -154.6068
  43   1.0000      -5.681647      -154.6055
  44   1.0000      -5.633456      -153.2941
  45   1.0000      -5.633446      -153.2939
  46   1.0000      -5.632807      -153.2765
  47   1.0000      -5.632765      -153.2753
  48   1.0000      -5.627425      -153.1300
  49   1.0000      -5.627407      -153.1295
  50   1.0000      -5.626589      -153.1073
  51   1.0000      -5.626531      -153.1057
  52   1.0000      -5.626374      -153.1014
  53   1.0000      -5.626370      -153.1013
  54   1.0000      -5.625888      -153.0882
  55   1.0000      -5.625811      -153.0861
  56   1.0000      -2.365370       -64.3650
  57   1.0000      -1.426950       -38.8293
  58   1.0000      -1.379869       -37.5481
  59   1.0000      -1.377774       -37.4911
  60   1.0000      -0.645067       -17.5532
  61   1.0000      -0.643736       -17.5170
  62   1.0000      -0.617503       -16.8031
  63   1.0000      -0.598193       -16.2777
  64   1.0000      -0.589743       -16.0477
  65   1.0000      -0.580008       -15.7828
  66   1.0000      -0.572985       -15.5917
  67   1.0000      -0.499273       -13.5859
  68   1.0000      -0.491881       -13.3848
  69   1.0000      -0.483045       -13.1443
  70   1.0000      -0.479791       -13.0558
  71   1.0000      -0.422539       -11.4979
  72   1.0000      -0.418101       -11.3771
  73   1.0000      -0.417097       -11.3498
  74   1.0000      -0.406838       -11.0706
  75   1.0000      -0.378037       -10.2869
  76   1.0000      -0.374340       -10.1863
  77   1.0000      -0.296899        -8.0790
  78   1.0000      -0.289448        -7.8763
  79   1.0000      -0.281218        -7.6523
  80   1.0000      -0.274370        -7.4660
  81   1.0000      -0.260899        -7.0994
  82   1.0000      -0.256417        -6.9775
  83   1.0000      -0.243939        -6.6379
  84   1.0000      -0.237886        -6.4732
  85   1.0000      -0.195842        -5.3291
  86   1.0000      -0.193587        -5.2678
  87   1.0000      -0.192568        -5.2400
  88   1.0000      -0.191303        -5.2056
  89   1.0000      -0.188756        -5.1363
  90   1.0000      -0.181588        -4.9413
  91   1.0000      -0.178251        -4.8505
  92   1.0000      -0.152449        -4.1483
  93   1.0000      -0.149881        -4.0785
  94   1.0000      -0.145042        -3.9468
  95   1.0000      -0.144399        -3.9293
  96   1.0000      -0.140675        -3.8280
  97   1.0000      -0.095992        -2.6121
  98   1.0000      -0.090981        -2.4757
  99   1.0000      -0.085562        -2.3283
 100   1.0000      -0.080830        -2.1995
 101   1.0000      -0.080325        -2.1857
 102   1.0000      -0.069383        -1.8880
 103   1.0000      -0.063666        -1.7324
 104   1.0000      -0.045124        -1.2279
 105   1.0000      -0.044469        -1.2101
 106   1.0000      -0.041164        -1.1201
 107   1.0000      -0.037949        -1.0327
 108   1.0000      -0.025269        -0.6876
 109   1.0000      -0.009259        -0.2520
 110   1.0000      -0.006883        -0.1873
 111   1.0000       0.004277         0.1164
 112   1.0000       0.012479         0.3396
 113   1.0000       0.021829         0.5940
 114   1.0000       0.032404         0.8818
 115   1.0000       0.056906         1.5485
 116   0.0000       0.185366         5.0441
 117   0.0000       0.189901         5.1675
 118   0.0000       0.193076         5.2539
 119   0.0000       0.196222         5.3395
 120   0.0000       0.198978         5.4145

MULLIKEN ATOMIC CHARGES AND SPIN POPULATIONS
--------------------------------------------
   0 V :    0.386591    1.226270
   1 S :   -0.180281   -0.020226
   2 S :   -0.297238   -0.029887
   3 S :   -0.181065   -0.020118
   4 S :   -0.297699   -0.029850
   5 O :   -0.507331   -0.161524
   6 C :   -0.117463    0.009810
   7 C :   -0.115425    0.009956
   8 C :   -0.120085    0.005487
   9 C :   -0.120958    0.005526
  10 S :   -0.037149    0.001896
  11 S :   -0.037287    0.001844
  12 S :   -0.048431   -0.000587
  13 S :   -0.048256   -0.000603
  14 C :   -0.345879    0.000702
  15 C :   -0.329713    0.000078
  16 C :   -0.345408    0.000661
  17 C :   -0.331036    0.000079
  18 C :   -0.065497   -0.000193
  19 H :    0.146018    0.000006
  20 H :    0.099488    0.000169
  21 H :    0.037290    0.000140
  22 H :    0.074727    0.000250
  23 H :    0.099408    0.000174
  24 H :    0.146408   -0.000003
  25 C :   -0.103251    0.000144
  26 H :    0.104873   -0.000018
  27 H :    0.147310   -0.000050
  28 H :    0.083097   -0.000021
  29 H :    0.051999   -0.000044
  30 H :    0.147259   -0.000050
  31 H :    0.104987   -0.000019
Sum of atomic charges         :   -2.0000000

LOEWDIN ATOMIC CHARGES AND SPIN POPULATIONS
-------------------------------------------
   0 V :   -0.236664    1.180973
   1 S :    0.153024   -0.015695
   2 S :    0.033832   -0.019327
   3 S :    0.152304   -0.015573
   4 S :    0.033480   -0.019293
   5 O :   -0.391891   -0.146814
   6 C :   -0.550408    0.009712
   7 C :   -0.550042    0.009754
   8 C :   -0.549315    0.007516
   9 C :   -0.549986    0.007551
  10 S :    0.340730    0.001161
  11 S :    0.340631    0.001126
  12 S :    0.332853   -0.001178
  13 S :    0.332764   -0.001191
  14 C :   -0.296369    0.000448
  15 C :   -0.291360    0.000032
  16 C :   -0.296449    0.000431
  17 C :   -0.291481    0.000034
  18 C :   -0.186643   -0.000029
  19 H :    0.064828    0.000072
  20 H :    0.046057    0.000144
  21 H :    0.044476    0.000089
  22 H :    0.052572    0.000081
  23 H :    0.046049    0.000146
  24 H :    0.064998    0.000070
  25 C :   -0.183043   -0.000065
  26 H :    0.048773   -0.000015
  27 H :    0.066802   -0.000050
  28 H :    0.054597   -0.000012
  29 H :    0.049299   -0.000033
  30 H :    0.066793   -0.000050
  31 H :    0.048793   -0.000014

  Mayer bond orders larger than 0.100000
B(  0-V ,  1-S ) :   0.9011 B(  0-V ,  2-S ) :   0.7136 B(  0-V ,  3-S ) :   0.9035
B(  0-V ,  4-S ) :   0.7119 B(  0-V ,  5-O ) :   2.1044 B(  1-S ,  8-C ) :   1.1123
B(  2-S ,  6-C ) :   1.1681 B(  3-S ,  9-C ) :   1.1096 B(  4-S ,  7-C ) :   1.1682
B(  6-C ,  7-C ) :   1.4695 B(  6-C , 10-S ) :   0.9406 B(  7-C , 11-S ) :   0.9402
B(  8-C ,  9-C ) :   1.5516 B(  8-C , 13-S ) :   0.9641 B(  9-C , 12-S ) :   0.9656
B( 10-S , 16-C ) :   1.0125 B( 11-S , 14-C ) :   1.0117 B( 12-S , 15-C ) :   0.9923
B( 13-S , 17-C ) :   0.9939 B( 14-C , 18-C ) :   0.8708 B( 14-C , 23-H ) :   0.9685
B( 14-C , 24-H ) :   0.9771 B( 15-C , 25-C ) :   0.8835 B( 15-C , 30-H ) :   0.9731
B( 15-C , 31-H ) :   0.9718 B( 16-C , 18-C ) :   0.8706 B( 16-C , 19-H ) :   0.9769
B( 16-C , 20-H ) :   0.9684 B( 17-C , 25-C ) :   0.8833 B( 17-C , 26-H ) :   0.9718
B( 17-C , 27-H ) :   0.9730 B( 18-C , 21-H ) :   0.9480 B( 18-C , 22-H ) :   0.9731
B( 25-C , 28-H ) :   0.9748 B( 25-C , 29-H ) :   0.9559

FINAL SINGLE POINT ENERGY     -4592.677474707869

DIPOLE MOMENT
-------------
                                X             Y             Z
Electronic contribution:    -12.20849     -22.46231       7.39393
Nuclear contribution   :     13.65232      25.15246      -8.23834
                        -----------------------------------------
Total Dipole Moment    :      1.44383       2.69015      -0.84441
                        -----------------------------------------
Magnitude (a.u.)       :      3.16774
Magnitude (Debye)      :      8.05176

Rotational constants in cm-1:     0.012727     0.002547     0.002428
Rotational constants in MHz :   381.533275    76.342563    72.797667

                             ****ORCA TERMINATED NORMALLY****
TOTAL RUN TIME: 0 days 0 hours 43 minutes 46 seconds 852 msec
