                         Program Version 5.0.4 -  RELEASE  -
|  1> ! nofrozencore ReducedPop printbasis
|  2> ! B3LYP TZVP
|  3>
|  4> %basis
|  5> newgto V "CP(PPP)" end
|  6> end
|  7>
|  8> %pal
|  9> nprocs 4
| 10> end
| 11>
| 12> % sym SymThresh 1e-2 end
| 13> * xyz -2 2
| 14> V 0.7323619762244633 0.4784520021628319 -0.693021136739693
| 15> S 1.8691519419307983 -1.4005287261201667 0.4123668870345298
| 16> S -0.5097886713424045 -1.215018350547347 -1.9609328212330859
| 17> S 0.9864879447809101 1.523843043927286 1.5162828520798348
| 18> S -1.3744024849352978 1.7258814084119127 -0.8764871959149146
| 19> O 1.786856929316464 1.1595571704937349 -1.6796363022700183
| 20> C -1.918402666869722 -0.3565869513616868 -2.56953657478848
| 21> C -2.279475603619034 0.8687977931174277 -2.1162223712176202
| 22> C 2.523296730452415 -0.7071646623732926 1.8843626164248801
| 23> C 2.155380383641869 0.5118803376134416 2.3448292712891874
| 24> S -2.8200460776647662 -1.2400151284235807 -3.842256297656393
| 25> S -3.7089506029939665 1.761124609288341 -2.7275205951969785
| 26> S 2.8223999273278313 1.2492404302321247 3.8308297650106184
| 27> S 3.7278658034496974 -1.7484300297011506 2.698567511789093
| 28> C -5.10615235004813 0.6799547824244135 -2.1464442746556758
| 29> C 2.168015664967225 0.08637331626742223 5.13386861428725
| 30> C -4.436035370192918 -1.5867198520009707 -2.9900362230550663
| 31> C 2.8428105037126654 -2.144740319934454 4.291471148433064
| 32> C -5.541107812681267 -0.5266008779706273 -2.983210964475054
| 33> H -4.158489938917875 -1.7976537334771885 -1.9480977993261366
| 34> H -4.798488418918653 -2.52796938631772 -3.4321284680469013
| 35> H -6.415731794811062 -0.9772417880771713 -2.467313819200178
| 36> H -5.868004634244604 -0.2454405547721629 -3.99843184711869
| 37> H -5.951133337695024 1.3662178373446705 -1.9796483092734276
| 38> H -4.780235322985004 0.3138831717266022 -1.1630990429534809
| 39> C 2.906766716155482 -1.2061696182297208 5.502985262131477
| 40> H 3.1716224614150783 -3.1693552681465063 4.558241617265955
| 41> H 1.78197377856189 -2.209396896908268 3.9873660263216335
| 42> H 3.9304656568689222 -1.0483480922522048 5.905315945219791
| 43> H 2.300420997425327 -1.6939470446298925 6.30870384166346
| 44> H 1.1772446008699489 -0.20795509895891703 4.741702818712339
| 45> H 1.993655324199064 0.7196652006179446 6.026979743535999
| 46> *
| 47>
| 48> % eprnmr
| 49> gtensor true
| 50> Nuclei = all H {aiso,adip,aorb,fgrad,rho}
| 51> Nuclei = all V {aiso,adip,aorb,fgrad,rho}
| 52> end
| 53>
| 54>                          ****END OF INPUT****

CARTESIAN COORDINATES (ANGSTROEM)
---------------------------------
  V      0.733084    0.478958   -0.693815
  S      1.869874   -1.400022    0.411573
  S     -0.509067   -1.214512   -1.961727
  S      0.987210    1.524349    1.515489
  S     -1.373680    1.726388   -0.877281
  O      1.787579    1.160063   -1.680430
  C     -1.917680   -0.356081   -2.570331
  C     -2.278753    0.869304   -2.117017
  C      2.524019   -0.706658    1.883568
  C      2.156103    0.512387    2.344035
  S     -2.819324   -1.239509   -3.843050
  S     -3.708228    1.761631   -2.728315
  S      2.823122    1.249747    3.830036
  S      3.728588   -1.747924    2.697773
  C     -5.105430    0.680461   -2.147238
  C      2.168738    0.086880    5.133074
  C     -4.435313   -1.586214   -2.990830
  C      2.843533   -2.144234    4.290677
  C     -5.540386   -0.526095   -2.984005
  H     -4.157768   -1.797147   -1.948892
  H     -4.797766   -2.527463   -3.432923
  H     -6.415010   -0.976735   -2.468108
  H     -5.867282   -0.244934   -3.999226
  H     -5.950411    1.366724   -1.980442
  H     -4.779513    0.314389   -1.163893
  C      2.907489   -1.205663    5.502191
  H      3.172345   -3.168849    4.557447
  H      1.782696   -2.208891    3.986572
  H      3.931188   -1.047842    5.904522
  H      2.301143   -1.693441    6.307910
  H      1.177967   -0.207449    4.740909
  H      1.994377    0.720172    6.026186

 Total Charge           Charge          ....   -2
 Multiplicity           Mult            ....    2
 Number of Electrons    NEL             ....  233
 Basis Dimension        Dim             ....  517

ORBITAL ENERGIES
----------------
                 SPIN UP ORBITALS
  NO   OCC          E(Eh)            E(eV)
   0   1.0000    -196.640934     -5350.8719
   1   1.0000     -88.678082     -2413.0533
   2   1.0000     -88.678058     -2413.0526
   3   1.0000     -88.677733     -2413.0438
   4   1.0000     -88.677656     -2413.0417
   5   1.0000     -88.611611     -2411.2445
   6   1.0000     -88.611594     -2411.2441
   7   1.0000     -88.611260     -2411.2350
   8   1.0000     -88.611176     -2411.2327
   9   1.0000     -22.016679      -599.1043
  10   1.0000     -18.857922      -513.1501
  11   1.0000     -18.523513      -504.0504
  12   1.0000     -18.517732      -503.8931
  13   1.0000     -18.517686      -503.8918
  14   1.0000     -10.017228      -272.5826
  15   1.0000     -10.017197      -272.5818
  16   1.0000     -10.016121      -272.5525
  17   1.0000     -10.016108      -272.5522
  18   1.0000     -10.012847      -272.4634
  19   1.0000     -10.009574      -272.3743
  20   1.0000      -9.989671      -271.8328
  21   1.0000      -9.988928      -271.8126
  22   1.0000      -9.988558      -271.8025
  23   1.0000      -9.987814      -271.7822
  24   1.0000      -7.731548      -210.3861
  25   1.0000      -7.731538      -210.3858
  26   1.0000      -7.731253      -210.3781
  27   1.0000      -7.731190      -210.3764
  28   1.0000      -7.666296      -208.6105
  29   1.0000      -7.666280      -208.6101
  30   1.0000      -7.666035      -208.6034
  31   1.0000      -7.665964      -208.6015
  32   1.0000      -5.696816      -155.0182
  33   1.0000      -5.696811      -155.0181
  34   1.0000      -5.696512      -155.0100
  35   1.0000      -5.696449      -155.0083
  36   1.0000      -5.692878      -154.9111
  37   1.0000      -5.692872      -154.9109
  38   1.0000      -5.692590      -154.9033
  39   1.0000      -5.692528      -154.9016
  40   1.0000      -5.686309      -154.7323
  41   1.0000      -5.686303      -154.7322
  42   1.0000      -5.686016      -154.7244
  43   1.0000      -5.685950      -154.7226
  44   1.0000      -5.631069      -153.2292
  45   1.0000      -5.631055      -153.2288
  46   1.0000      -5.630764      -153.2209
  47   1.0000      -5.630686      -153.2188
  48   1.0000      -5.624713      -153.0562
  49   1.0000      -5.624696      -153.0558
  50   1.0000      -5.624463      -153.0494
  51   1.0000      -5.624398      -153.0476
  52   1.0000      -5.624318      -153.0455
  53   1.0000      -5.624300      -153.0450
  54   1.0000      -5.624068      -153.0387
  55   1.0000      -5.623998      -153.0368
  56   1.0000      -2.410288       -65.5873
  57   1.0000      -1.451685       -39.5024
  58   1.0000      -1.440030       -39.1852
  59   1.0000      -1.438873       -39.1537
  60   1.0000      -0.643873       -17.5207
  61   1.0000      -0.643636       -17.5142
  62   1.0000      -0.618905       -16.8413
  63   1.0000      -0.597267       -16.2525
  64   1.0000      -0.596492       -16.2314
  65   1.0000      -0.573379       -15.6024
  66   1.0000      -0.572152       -15.5690
  67   1.0000      -0.493487       -13.4285
  68   1.0000      -0.491649       -13.3784
  69   1.0000      -0.487577       -13.2677
  70   1.0000      -0.486241       -13.2313
  71   1.0000      -0.421957       -11.4820
  72   1.0000      -0.419240       -11.4081
  73   1.0000      -0.411342       -11.1932
  74   1.0000      -0.406269       -11.0551
  75   1.0000      -0.377341       -10.2680
  76   1.0000      -0.374651       -10.1948
  77   1.0000      -0.294141        -8.0040
  78   1.0000      -0.293666        -7.9911
  79   1.0000      -0.276440        -7.5223
  80   1.0000      -0.274898        -7.4804
  81   1.0000      -0.257216        -6.9992
  82   1.0000      -0.250762        -6.8236
  83   1.0000      -0.235964        -6.4209
  84   1.0000      -0.232438        -6.3250
  85   1.0000      -0.200897        -5.4667
  86   1.0000      -0.198481        -5.4009
  87   1.0000      -0.192470        -5.2374
  88   1.0000      -0.189568        -5.1584
  89   1.0000      -0.186209        -5.0670
  90   1.0000      -0.182597        -4.9687
  91   1.0000      -0.180860        -4.9214
  92   1.0000      -0.152818        -4.1584
  93   1.0000      -0.146717        -3.9924
  94   1.0000      -0.142331        -3.8730
  95   1.0000      -0.140825        -3.8321
  96   1.0000      -0.140703        -3.8287
  97   1.0000      -0.098194        -2.6720
  98   1.0000      -0.097354        -2.6491
  99   1.0000      -0.090744        -2.4693
 100   1.0000      -0.086272        -2.3476
 101   1.0000      -0.083288        -2.2664
 102   1.0000      -0.080751        -2.1974
 103   1.0000      -0.072073        -1.9612
 104   1.0000      -0.049453        -1.3457
 105   1.0000      -0.039957        -1.0873
 106   1.0000      -0.037295        -1.0149
 107   1.0000      -0.035271        -0.9598
 108   1.0000      -0.034644        -0.9427
 109   1.0000      -0.013279        -0.3613
 110   1.0000      -0.004989        -0.1357
 111   1.0000      -0.002959        -0.0805
 112   1.0000       0.005033         0.1370
 113   1.0000       0.011622         0.3162
 114   1.0000       0.015564         0.4235
 115   1.0000       0.035276         0.9599
 116   1.0000       0.060860         1.6561
 117   0.0000       0.187307         5.0969
 118   0.0000       0.195139         5.3100
 119   0.0000       0.195253         5.3131
 120   0.0000       0.195868         5.3298
 121   0.0000       0.210806         5.7363

                 SPIN DOWN ORBITALS
  NO   OCC          E(Eh)            E(eV)
   0   1.0000    -196.641074     -5350.8757
   1   1.0000     -88.678096     -2413.0537
   2   1.0000     -88.678073     -2413.0530
   3   1.0000     -88.677746     -2413.0442
   4   1.0000     -88.677670     -2413.0421
   5   1.0000     -88.611771     -2411.2489
   6   1.0000     -88.611753     -2411.2484
   7   1.0000     -88.611421     -2411.2393
   8   1.0000     -88.611336     -2411.2370
   9   1.0000     -22.001965      -598.7039
  10   1.0000     -18.861522      -513.2481
  11   1.0000     -18.518355      -503.9101
  12   1.0000     -18.502258      -503.4720
  13   1.0000     -18.501449      -503.4500
  14   1.0000     -10.017224      -272.5825
  15   1.0000     -10.017194      -272.5817
  16   1.0000     -10.016118      -272.5524
  17   1.0000     -10.016105      -272.5521
  18   1.0000     -10.012848      -272.4634
  19   1.0000     -10.009574      -272.3743
  20   1.0000      -9.989427      -271.8261
  21   1.0000      -9.988685      -271.8059
  22   1.0000      -9.988321      -271.7960
  23   1.0000      -9.987579      -271.7758
  24   1.0000      -7.731563      -210.3865
  25   1.0000      -7.731553      -210.3863
  26   1.0000      -7.731267      -210.3785
  27   1.0000      -7.731205      -210.3768
  28   1.0000      -7.666445      -208.6146
  29   1.0000      -7.666429      -208.6141
  30   1.0000      -7.666185      -208.6075
  31   1.0000      -7.666113      -208.6055
  32   1.0000      -5.696833      -155.0187
  33   1.0000      -5.696828      -155.0186
  34   1.0000      -5.696529      -155.0104
  35   1.0000      -5.696466      -155.0087
  36   1.0000      -5.692899      -154.9117
  37   1.0000      -5.692893      -154.9115
  38   1.0000      -5.692611      -154.9038
  39   1.0000      -5.692549      -154.9021
  40   1.0000      -5.686328      -154.7329
  41   1.0000      -5.686323      -154.7327
  42   1.0000      -5.686034      -154.7249
  43   1.0000      -5.685969      -154.7231
  44   1.0000      -5.631241      -153.2338
  45   1.0000      -5.631225      -153.2334
  46   1.0000      -5.630934      -153.2255
  47   1.0000      -5.630855      -153.2234
  48   1.0000      -5.625108      -153.0670
  49   1.0000      -5.625090      -153.0665
  50   1.0000      -5.624860      -153.0602
  51   1.0000      -5.624794      -153.0584
  52   1.0000      -5.624453      -153.0492
  53   1.0000      -5.624434      -153.0486
  54   1.0000      -5.624202      -153.0423
  55   1.0000      -5.624131      -153.0404
  56   1.0000      -2.365978       -64.3815
  57   1.0000      -1.432750       -38.9871
  58   1.0000      -1.378591       -37.5134
  59   1.0000      -1.377632       -37.4873
  60   1.0000      -0.643820       -17.5192
  61   1.0000      -0.643580       -17.5127
  62   1.0000      -0.626614       -17.0510
  63   1.0000      -0.597113       -16.2483
  64   1.0000      -0.596312       -16.2265
  65   1.0000      -0.573375       -15.6023
  66   1.0000      -0.572150       -15.5690
  67   1.0000      -0.493523       -13.4294
  68   1.0000      -0.491695       -13.3797
  69   1.0000      -0.487603       -13.2684
  70   1.0000      -0.486291       -13.2326
  71   1.0000      -0.422201       -11.4887
  72   1.0000      -0.419546       -11.4164
  73   1.0000      -0.411360       -11.1937
  74   1.0000      -0.406372       -11.0579
  75   1.0000      -0.377301       -10.2669
  76   1.0000      -0.374676       -10.1955
  77   1.0000      -0.294122        -8.0035
  78   1.0000      -0.293653        -7.9907
  79   1.0000      -0.276422        -7.5218
  80   1.0000      -0.274884        -7.4800
  81   1.0000      -0.256980        -6.9928
  82   1.0000      -0.250702        -6.8220
  83   1.0000      -0.235922        -6.4198
  84   1.0000      -0.232414        -6.3243
  85   1.0000      -0.200736        -5.4623
  86   1.0000      -0.198384        -5.3983
  87   1.0000      -0.192118        -5.2278
  88   1.0000      -0.189481        -5.1560
  89   1.0000      -0.186168        -5.0659
  90   1.0000      -0.182564        -4.9678
  91   1.0000      -0.178938        -4.8692
  92   1.0000      -0.152215        -4.1420
  93   1.0000      -0.146439        -3.9848
  94   1.0000      -0.142021        -3.8646
  95   1.0000      -0.140679        -3.8281
  96   1.0000      -0.140606        -3.8261
  97   1.0000      -0.096884        -2.6364
  98   1.0000      -0.096701        -2.6314
  99   1.0000      -0.090827        -2.4715
 100   1.0000      -0.086086        -2.3425
 101   1.0000      -0.082865        -2.2549
 102   1.0000      -0.082639        -2.2487
 103   1.0000      -0.073408        -1.9975
 104   1.0000      -0.045489        -1.2378
 105   1.0000      -0.039274        -1.0687
 106   1.0000      -0.037698        -1.0258
 107   1.0000      -0.034668        -0.9434
 108   1.0000      -0.034250        -0.9320
 109   1.0000      -0.012384        -0.3370
 110   1.0000      -0.006308        -0.1716
 111   1.0000      -0.001907        -0.0519
 112   1.0000       0.005987         0.1629
 113   1.0000       0.012513         0.3405
 114   1.0000       0.035513         0.9664
 115   1.0000       0.060079         1.6348
 116   0.0000       0.185572         5.0497
 117   0.0000       0.188609         5.1323
 118   0.0000       0.195283         5.3139
 119   0.0000       0.195644         5.3237
 120   0.0000       0.196150         5.3375

MULLIKEN ATOMIC CHARGES AND SPIN POPULATIONS
--------------------------------------------
   0 V :    0.445996    1.201819
   1 S :   -0.254791   -0.023875
   2 S :   -0.253773   -0.023853
   3 S :   -0.254804   -0.023811
   4 S :   -0.254142   -0.023760
   5 O :   -0.506392   -0.139400
   6 C :   -0.116232    0.008345
   7 C :   -0.114614    0.008399
   8 C :   -0.114803    0.008121
   9 C :   -0.115408    0.008050
  10 S :   -0.041825   -0.000212
  11 S :   -0.041849   -0.000237
  12 S :   -0.039673   -0.000277
  13 S :   -0.039636   -0.000305
  14 C :   -0.367060    0.000230
  15 C :   -0.375024    0.000205
  16 C :   -0.366844    0.000214
  17 C :   -0.375299    0.000226
  18 C :   -0.050826    0.000128
  19 H :    0.149171   -0.000084
  20 H :    0.106659    0.000019
  21 H :    0.049961    0.000036
  22 H :    0.076371    0.000028
  23 H :    0.106517    0.000020
  24 H :    0.149449   -0.000086
  25 C :   -0.041505    0.000118
  26 H :    0.106609    0.000025
  27 H :    0.149391   -0.000085
  28 H :    0.076435    0.000029
  29 H :    0.051864    0.000030
  30 H :    0.149421   -0.000082
  31 H :    0.106659    0.000023
Sum of atomic charges         :   -2.0000000

LOEWDIN ATOMIC CHARGES AND SPIN POPULATIONS
-------------------------------------------
   0 V :   -0.236336    1.156311
   1 S :    0.091246   -0.016339
   2 S :    0.090687   -0.016269
   3 S :    0.091095   -0.016295
   4 S :    0.090418   -0.016209
   5 O :   -0.350844   -0.124811
   6 C :   -0.564098    0.009579
   7 C :   -0.563531    0.009549
   8 C :   -0.568207    0.009250
   9 C :   -0.568562    0.009265
  10 S :    0.339263   -0.001081
  11 S :    0.339146   -0.001093
  12 S :    0.340194   -0.001136
  13 S :    0.340158   -0.001147
  14 C :   -0.297138    0.000150
  15 C :   -0.299723    0.000138
  16 C :   -0.297261    0.000142
  17 C :   -0.299784    0.000150
  18 C :   -0.178607   -0.000057
  19 H :    0.069215   -0.000024
  20 H :    0.046266    0.000006
  21 H :    0.052144    0.000015
  22 H :    0.052978    0.000010
  23 H :    0.046263    0.000007
  24 H :    0.069346   -0.000025
  25 C :   -0.177653   -0.000071
  26 H :    0.046194    0.000011
  27 H :    0.071088   -0.000026
  28 H :    0.053698    0.000007
  29 H :    0.055010    0.000013
  30 H :    0.071137   -0.000025
  31 H :    0.046198    0.000009

  Mayer bond orders larger than 0.100000
B(  0-V ,  1-S ) :   0.7875 B(  0-V ,  2-S ) :   0.7915 B(  0-V ,  3-S ) :   0.7895
B(  0-V ,  4-S ) :   0.7890 B(  0-V ,  5-O ) :   2.1092 B(  1-S ,  8-C ) :   1.1458
B(  2-S ,  6-C ) :   1.1425 B(  3-S ,  9-C ) :   1.1449 B(  4-S ,  7-C ) :   1.1434
B(  6-C ,  7-C ) :   1.4950 B(  6-C , 10-S ) :   0.9590 B(  7-C , 11-S ) :   0.9589
B(  8-C ,  9-C ) :   1.4856 B(  8-C , 13-S ) :   0.9608 B(  9-C , 12-S ) :   0.9609
B( 10-S , 16-C ) :   1.0073 B( 11-S , 14-C ) :   1.0070 B( 12-S , 15-C ) :   1.0096
B( 13-S , 17-C ) :   1.0099 B( 14-C , 18-C ) :   0.8758 B( 14-C , 23-H ) :   0.9675
B( 14-C , 24-H ) :   0.9819 B( 15-C , 25-C ) :   0.8748 B( 15-C , 30-H ) :   0.9833
B( 15-C , 31-H ) :   0.9662 B( 16-C , 18-C ) :   0.8754 B( 16-C , 19-H ) :   0.9818
B( 16-C , 20-H ) :   0.9674 B( 17-C , 25-C ) :   0.8746 B( 17-C , 26-H ) :   0.9662
B( 17-C , 27-H ) :   0.9832 B( 18-C , 21-H ) :   0.9624 B( 18-C , 22-H ) :   0.9610
B( 25-C , 28-H ) :   0.9552 B( 25-C , 29-H ) :   0.9651

FINAL SINGLE POINT ENERGY     -4592.711991474376

DIPOLE MOMENT
-------------
                                X             Y             Z
Electronic contribution:     17.91084      11.68508     -16.86266
Nuclear contribution   :    -19.91136     -12.97870      18.71881
                        -----------------------------------------
Total Dipole Moment    :     -2.00052      -1.29362       1.85615
                        -----------------------------------------
Magnitude (a.u.)       :      3.02007
Magnitude (Debye)      :      7.67640

Rotational constants in cm-1:     0.012788     0.002548     0.002434
Rotational constants in MHz :   383.367929    76.399187    72.980483

                             ****ORCA TERMINATED NORMALLY****
TOTAL RUN TIME: 0 days 0 hours 43 minutes 25 seconds 374 msec
