                         Program Version 5.0.4 -  RELEASE  -
|  1> ! nofrozencore ReducedPop printbasis
|  2> ! B3LYP TZVP
|  3>
|  4> %basis
|  5> newgto V "CP(PPP)" end
|  6> end
|  7>
|  8> %pal
|  9> nprocs 4
| 10> end
| 11>
| 12> % sym SymThresh 1e-2 end
| 13> * xyz -2 2
| 14> V 0.5822923681404493 -0.4876542112609244 -0.953879697256878
| 15> S -1.8049010512512422 -1.746923879521025 -0.6087527593599653
| 16> S -1.0404646513706466 1.5128819748832807 -1.7958102884679725
| 17> S 1.3308361132640532 -1.7552209426414855 1.3222737320282678
| 18> S 2.110440988851743 1.4968314842935533 0.11358686510787887
| 19> O 1.3395736974290624 -1.128670667221693 -2.199269599065692
| 20> C 0.15359089904008547 2.829546028398122 -1.5261176407962367
| 21> C 1.3269191598312602 2.8195649272494623 -0.8143583149390918
| 22> C -1.1872428317115296 -2.9349414511428527 0.5872427359968553
| 23> C -0.020351201613829698 -2.9403505304447037 1.309489217118805
| 24> S -0.4469728172248933 4.282915588357469 -2.450418019722682
| 25> S 2.4459424475104323 4.251332723070093 -0.6855968449271787
| 26> S 0.44305585840590667 -4.280160189577707 2.4568904864220826
| 27> S -2.4352095162047105 -4.260003764849062 0.6697854764204983
| 28> C 1.3787336075455594 5.359461031949085 0.3057926040270747
| 29> C -0.8184606478464583 -3.9964416298817915 3.751447122940896
| 30> C -0.8400616120414011 5.38313331750811 -1.0418055301492324
| 31> C -3.0221320187252876 -3.987934360673541 2.380939821400098
| 32> C 0.35274540118862924 6.161756122964535 -0.4921703449887288
| 33> H -1.300377211715129 4.761624180768329 -0.2692496778667018
| 34> H -1.599117044153844 6.086833566423646 -1.404017838836838
| 35> H -0.03808428958228865 6.9559294649489445 0.16821112719172585
| 36> H 0.8632550430698459 6.660658995497399 -1.325113222045595
| 37> H 2.054540535967859 6.050492127030983 0.8238541245845546
| 38> H 0.8928473416785742 4.737358549137543 1.0621514731067947
| 39> C -2.172617223299836 -4.6419315988677186 3.4684128797848293
| 40> H -4.039937334775659 -4.394515305906599 2.4227375911252476
| 41> H -3.0884319036662142 -2.9061560894115614 2.525508997856429
| 42> H -2.0138832352387874 -5.695918732339894 3.207767195150802
| 43> H -2.757156403760266 -4.6261944932525365 4.405492596704104
| 44> H -0.9105327807334054 -2.914115940002867 3.8761785572457956
| 45> H -0.404977043094478 -4.407992807549379 4.680210142370895
| 46> *
| 47>
| 48> % eprnmr
| 49> gtensor true
| 50> Nuclei = all H {aiso,adip,aorb,fgrad,rho}
| 51> Nuclei = all V {aiso,adip,aorb,fgrad,rho}
| 52> end
| 53>
| 54>                          ****END OF INPUT****

CARTESIAN COORDINATES (ANGSTROEM)
---------------------------------
  V      0.582870   -0.488053   -0.954837
  S     -1.804323   -1.747323   -0.609710
  S     -1.039887    1.512483   -1.796767
  S      1.331414   -1.755620    1.321317
  S      2.111019    1.496433    0.112630
  O      1.340151   -1.129069   -2.200227
  C      0.154169    2.829147   -1.527075
  C      1.327497    2.819166   -0.815315
  C     -1.186665   -2.935340    0.586286
  C     -0.019774   -2.940749    1.308532
  S     -0.446395    4.282517   -2.451375
  S      2.446520    4.250934   -0.686554
  S      0.443634   -4.280559    2.455933
  S     -2.434632   -4.260402    0.668828
  C      1.379311    5.359062    0.304836
  C     -0.817883   -3.996840    3.750490
  C     -0.839484    5.382735   -1.042763
  C     -3.021554   -3.988333    2.379983
  C      0.353323    6.161357   -0.493127
  H     -1.299800    4.761225   -0.270207
  H     -1.598539    6.086435   -1.404975
  H     -0.037507    6.955531    0.167254
  H      0.863833    6.660260   -1.326070
  H      2.055118    6.050093    0.822897
  H      0.893425    4.736960    1.061194
  C     -2.172040   -4.642330    3.467456
  H     -4.039360   -4.394914    2.421781
  H     -3.087854   -2.906555    2.524552
  H     -2.013306   -5.696317    3.206810
  H     -2.756579   -4.626593    4.404536
  H     -0.909955   -2.914515    3.875222
  H     -0.404399   -4.408392    4.679253

 Total Charge           Charge          ....   -2
 Multiplicity           Mult            ....    2
 Number of Electrons    NEL             ....  233
 Basis Dimension        Dim             ....  517

ORBITAL ENERGIES
----------------
                 SPIN UP ORBITALS
  NO   OCC          E(Eh)            E(eV)
   0   1.0000    -196.676888     -5351.8502
   1   1.0000     -88.675249     -2412.9762
   2   1.0000     -88.675245     -2412.9761
   3   1.0000     -88.675199     -2412.9748
   4   1.0000     -88.675087     -2412.9718
   5   1.0000     -88.620771     -2411.4938
   6   1.0000     -88.620721     -2411.4924
   7   1.0000     -88.620712     -2411.4922
   8   1.0000     -88.620633     -2411.4900
   9   1.0000     -22.048768      -599.9775
  10   1.0000     -18.887553      -513.9564
  11   1.0000     -18.556035      -504.9354
  12   1.0000     -18.549762      -504.7647
  13   1.0000     -18.549743      -504.7642
  14   1.0000     -10.012643      -272.4579
  15   1.0000     -10.012519      -272.4545
  16   1.0000     -10.012442      -272.4524
  17   1.0000     -10.012347      -272.4498
  18   1.0000     -10.000712      -272.1332
  19   1.0000     -10.000574      -272.1295
  20   1.0000     -10.000370      -272.1239
  21   1.0000     -10.000292      -272.1218
  22   1.0000      -9.999728      -272.1064
  23   1.0000      -9.999648      -272.1043
  24   1.0000      -7.729229      -210.3230
  25   1.0000      -7.729202      -210.3223
  26   1.0000      -7.729165      -210.3213
  27   1.0000      -7.729107      -210.3197
  28   1.0000      -7.673098      -208.7956
  29   1.0000      -7.673078      -208.7951
  30   1.0000      -7.673071      -208.7949
  31   1.0000      -7.673020      -208.7935
  32   1.0000      -5.694375      -154.9518
  33   1.0000      -5.694347      -154.9511
  34   1.0000      -5.694298      -154.9497
  35   1.0000      -5.694242      -154.9482
  36   1.0000      -5.690707      -154.8520
  37   1.0000      -5.690691      -154.8516
  38   1.0000      -5.690666      -154.8509
  39   1.0000      -5.690595      -154.8490
  40   1.0000      -5.683853      -154.6655
  41   1.0000      -5.683827      -154.6648
  42   1.0000      -5.683792      -154.6639
  43   1.0000      -5.683726      -154.6620
  44   1.0000      -5.638086      -153.4201
  45   1.0000      -5.638061      -153.4194
  46   1.0000      -5.638047      -153.4191
  47   1.0000      -5.637982      -153.4173
  48   1.0000      -5.632184      -153.2595
  49   1.0000      -5.632155      -153.2587
  50   1.0000      -5.632152      -153.2586
  51   1.0000      -5.632105      -153.2574
  52   1.0000      -5.630619      -153.2169
  53   1.0000      -5.630615      -153.2168
  54   1.0000      -5.630585      -153.2160
  55   1.0000      -5.630547      -153.2150
  56   1.0000      -2.441385       -66.4335
  57   1.0000      -1.482971       -40.3537
  58   1.0000      -1.469438       -39.9854
  59   1.0000      -1.469011       -39.9738
  60   1.0000      -0.646120       -17.5818
  61   1.0000      -0.643573       -17.5125
  62   1.0000      -0.643437       -17.5088
  63   1.0000      -0.586011       -15.9462
  64   1.0000      -0.585732       -15.9386
  65   1.0000      -0.579204       -15.7609
  66   1.0000      -0.579098       -15.7581
  67   1.0000      -0.488340       -13.2884
  68   1.0000      -0.487312       -13.2604
  69   1.0000      -0.481527       -13.1030
  70   1.0000      -0.480490       -13.0748
  71   1.0000      -0.418113       -11.3774
  72   1.0000      -0.415890       -11.3169
  73   1.0000      -0.408030       -11.1031
  74   1.0000      -0.404065       -10.9952
  75   1.0000      -0.380212       -10.3461
  76   1.0000      -0.379247       -10.3198
  77   1.0000      -0.289363        -7.8740
  78   1.0000      -0.289224        -7.8702
  79   1.0000      -0.275498        -7.4967
  80   1.0000      -0.275093        -7.4857
  81   1.0000      -0.259366        -7.0577
  82   1.0000      -0.255971        -6.9653
  83   1.0000      -0.238523        -6.4905
  84   1.0000      -0.235445        -6.4068
  85   1.0000      -0.193339        -5.2610
  86   1.0000      -0.192703        -5.2437
  87   1.0000      -0.191220        -5.2034
  88   1.0000      -0.188756        -5.1363
  89   1.0000      -0.180776        -4.9192
  90   1.0000      -0.179868        -4.8945
  91   1.0000      -0.167309        -4.5527
  92   1.0000      -0.149680        -4.0730
  93   1.0000      -0.149113        -4.0576
  94   1.0000      -0.145985        -3.9725
  95   1.0000      -0.141053        -3.8382
  96   1.0000      -0.139939        -3.8079
  97   1.0000      -0.122387        -3.3303
  98   1.0000      -0.104251        -2.8368
  99   1.0000      -0.103433        -2.8146
 100   1.0000      -0.088745        -2.4149
 101   1.0000      -0.084220        -2.2917
 102   1.0000      -0.079930        -2.1750
 103   1.0000      -0.078561        -2.1378
 104   1.0000      -0.047839        -1.3018
 105   1.0000      -0.044068        -1.1992
 106   1.0000      -0.042045        -1.1441
 107   1.0000      -0.040897        -1.1129
 108   1.0000      -0.024371        -0.6632
 109   1.0000      -0.012973        -0.3530
 110   1.0000      -0.012849        -0.3496
 111   1.0000      -0.005984        -0.1628
 112   1.0000       0.005049         0.1374
 113   1.0000       0.009858         0.2683
 114   1.0000       0.011313         0.3079
 115   1.0000       0.035777         0.9735
 116   1.0000       0.053475         1.4551
 117   0.0000       0.166945         4.5428
 118   0.0000       0.178099         4.8463
 119   0.0000       0.178774         4.8647
 120   0.0000       0.194671         5.2973
 121   0.0000       0.195296         5.3143

                 SPIN DOWN ORBITALS
  NO   OCC          E(Eh)            E(eV)
   0   1.0000    -196.677046     -5351.8545
   1   1.0000     -88.675273     -2412.9768
   2   1.0000     -88.675270     -2412.9768
   3   1.0000     -88.675223     -2412.9755
   4   1.0000     -88.675113     -2412.9725
   5   1.0000     -88.621024     -2411.5007
   6   1.0000     -88.620975     -2411.4993
   7   1.0000     -88.620967     -2411.4991
   8   1.0000     -88.620889     -2411.4970
   9   1.0000     -22.032247      -599.5279
  10   1.0000     -18.891824      -514.0727
  11   1.0000     -18.549995      -504.7710
  12   1.0000     -18.532300      -504.2895
  13   1.0000     -18.531850      -504.2773
  14   1.0000     -10.012638      -272.4577
  15   1.0000     -10.012514      -272.4544
  16   1.0000     -10.012437      -272.4523
  17   1.0000     -10.012342      -272.4497
  18   1.0000     -10.000715      -272.1333
  19   1.0000     -10.000578      -272.1296
  20   1.0000     -10.000246      -272.1205
  21   1.0000     -10.000168      -272.1184
  22   1.0000      -9.999605      -272.1031
  23   1.0000      -9.999525      -272.1009
  24   1.0000      -7.729255      -210.3237
  25   1.0000      -7.729226      -210.3229
  26   1.0000      -7.729190      -210.3219
  27   1.0000      -7.729133      -210.3204
  28   1.0000      -7.673339      -208.8022
  29   1.0000      -7.673321      -208.8017
  30   1.0000      -7.673312      -208.8014
  31   1.0000      -7.673264      -208.8001
  32   1.0000      -5.694397      -154.9524
  33   1.0000      -5.694368      -154.9516
  34   1.0000      -5.694319      -154.9503
  35   1.0000      -5.694265      -154.9488
  36   1.0000      -5.690728      -154.8526
  37   1.0000      -5.690712      -154.8521
  38   1.0000      -5.690687      -154.8515
  39   1.0000      -5.690616      -154.8495
  40   1.0000      -5.683914      -154.6672
  41   1.0000      -5.683884      -154.6664
  42   1.0000      -5.683850      -154.6654
  43   1.0000      -5.683787      -154.6637
  44   1.0000      -5.638279      -153.4254
  45   1.0000      -5.638255      -153.4247
  46   1.0000      -5.638241      -153.4243
  47   1.0000      -5.638177      -153.4226
  48   1.0000      -5.632887      -153.2786
  49   1.0000      -5.632867      -153.2781
  50   1.0000      -5.632855      -153.2778
  51   1.0000      -5.632819      -153.2768
  52   1.0000      -5.630820      -153.2224
  53   1.0000      -5.630815      -153.2223
  54   1.0000      -5.630785      -153.2214
  55   1.0000      -5.630749      -153.2205
  56   1.0000      -2.391887       -65.0866
  57   1.0000      -1.460747       -39.7489
  58   1.0000      -1.401506       -38.1369
  59   1.0000      -1.401013       -38.1235
  60   1.0000      -0.655322       -17.8322
  61   1.0000      -0.643605       -17.5134
  62   1.0000      -0.643466       -17.5096
  63   1.0000      -0.586039       -15.9469
  64   1.0000      -0.585758       -15.9393
  65   1.0000      -0.579275       -15.7629
  66   1.0000      -0.579168       -15.7600
  67   1.0000      -0.488791       -13.3007
  68   1.0000      -0.487750       -13.2723
  69   1.0000      -0.481765       -13.1095
  70   1.0000      -0.480723       -13.0811
  71   1.0000      -0.418739       -11.3945
  72   1.0000      -0.416545       -11.3348
  73   1.0000      -0.408657       -11.1201
  74   1.0000      -0.404715       -11.0129
  75   1.0000      -0.380359       -10.3501
  76   1.0000      -0.379458       -10.3256
  77   1.0000      -0.289366        -7.8741
  78   1.0000      -0.289229        -7.8703
  79   1.0000      -0.275520        -7.4973
  80   1.0000      -0.275121        -7.4864
  81   1.0000      -0.259546        -7.0626
  82   1.0000      -0.256145        -6.9701
  83   1.0000      -0.238583        -6.4922
  84   1.0000      -0.235565        -6.4101
  85   1.0000      -0.193353        -5.2614
  86   1.0000      -0.192723        -5.2443
  87   1.0000      -0.191236        -5.2038
  88   1.0000      -0.188825        -5.1382
  89   1.0000      -0.180761        -4.9187
  90   1.0000      -0.179859        -4.8942
  91   1.0000      -0.166425        -4.5286
  92   1.0000      -0.149837        -4.0773
  93   1.0000      -0.149166        -4.0590
  94   1.0000      -0.146019        -3.9734
  95   1.0000      -0.140851        -3.8328
  96   1.0000      -0.140018        -3.8101
  97   1.0000      -0.121691        -3.3114
  98   1.0000      -0.106980        -2.9111
  99   1.0000      -0.106657        -2.9023
 100   1.0000      -0.088770        -2.4156
 101   1.0000      -0.083882        -2.2826
 102   1.0000      -0.080143        -2.1808
 103   1.0000      -0.078676        -2.1409
 104   1.0000      -0.047218        -1.2849
 105   1.0000      -0.043810        -1.1921
 106   1.0000      -0.042860        -1.1663
 107   1.0000      -0.041390        -1.1263
 108   1.0000      -0.022928        -0.6239
 109   1.0000      -0.014075        -0.3830
 110   1.0000      -0.006342        -0.1726
 111   1.0000       0.004880         0.1328
 112   1.0000       0.009531         0.2594
 113   1.0000       0.013786         0.3751
 114   1.0000       0.035779         0.9736
 115   1.0000       0.052648         1.4326
 116   0.0000       0.181785         4.9466
 117   0.0000       0.184698         5.0259
 118   0.0000       0.191951         5.2232
 119   0.0000       0.198116         5.3910
 120   0.0000       0.198307         5.3962

MULLIKEN ATOMIC CHARGES AND SPIN POPULATIONS
--------------------------------------------
   0 V :    0.689706    1.315448
   1 S :   -0.316050   -0.042677
   2 S :   -0.315258   -0.042153
   3 S :   -0.315222   -0.042169
   4 S :   -0.316741   -0.042543
   5 O :   -0.500682   -0.162709
   6 C :   -0.118267    0.006081
   7 C :   -0.119758    0.005826
   8 C :   -0.119449    0.005874
   9 C :   -0.118262    0.006055
  10 S :   -0.042367   -0.001848
  11 S :   -0.040428   -0.002005
  12 S :   -0.042249   -0.001891
  13 S :   -0.040862   -0.002038
  14 C :   -0.349632    0.000309
  15 C :   -0.347807    0.000347
  16 C :   -0.345969    0.000316
  17 C :   -0.349185    0.000343
  18 C :   -0.072036   -0.000163
  19 H :    0.150991   -0.000159
  20 H :    0.102754    0.000102
  21 H :    0.038120   -0.000021
  22 H :    0.080280    0.000028
  23 H :    0.102433    0.000106
  24 H :    0.150980   -0.000166
  25 C :   -0.071626   -0.000179
  26 H :    0.102455    0.000111
  27 H :    0.151039   -0.000173
  28 H :    0.080538    0.000025
  29 H :    0.037922   -0.000021
  30 H :    0.151819   -0.000163
  31 H :    0.102813    0.000107
Sum of atomic charges         :   -2.0000000

LOEWDIN ATOMIC CHARGES AND SPIN POPULATIONS
-------------------------------------------
   0 V :    0.089592    1.274643
   1 S :   -0.006232   -0.034905
   2 S :   -0.005433   -0.034344
   3 S :   -0.005402   -0.034387
   4 S :   -0.006921   -0.034791
   5 O :   -0.323977   -0.147949
   6 C :   -0.537963    0.005511
   7 C :   -0.537726    0.005297
   8 C :   -0.537846    0.005333
   9 C :   -0.537885    0.005502
  10 S :    0.330792   -0.002453
  11 S :    0.331450   -0.002606
  12 S :    0.330786   -0.002492
  13 S :    0.331439   -0.002634
  14 C :   -0.296569    0.000175
  15 C :   -0.296102    0.000188
  16 C :   -0.296149    0.000181
  17 C :   -0.296570    0.000186
  18 C :   -0.188753   -0.000186
  19 H :    0.066904   -0.000060
  20 H :    0.046428    0.000050
  21 H :    0.044230   -0.000018
  22 H :    0.053458   -0.000003
  23 H :    0.046348    0.000052
  24 H :    0.066804   -0.000064
  25 C :   -0.189024   -0.000185
  26 H :    0.046281    0.000054
  27 H :    0.066856   -0.000066
  28 H :    0.053550   -0.000004
  29 H :    0.044118   -0.000018
  30 H :    0.067170   -0.000060
  31 H :    0.046346    0.000053

  Mayer bond orders larger than 0.100000
B(  0-V ,  1-S ) :   0.6815 B(  0-V ,  2-S ) :   0.6877 B(  0-V ,  3-S ) :   0.6875
B(  0-V ,  4-S ) :   0.6803 B(  0-V ,  5-O ) :   2.1469 B(  1-S ,  8-C ) :   1.1712
B(  2-S ,  6-C ) :   1.1656 B(  3-S ,  9-C ) :   1.1667 B(  4-S ,  7-C ) :   1.1710
B(  6-C ,  7-C ) :   1.4984 B(  6-C , 10-S ) :   0.9280 B(  7-C , 11-S ) :   0.9298
B(  8-C ,  9-C ) :   1.4982 B(  8-C , 13-S ) :   0.9285 B(  9-C , 12-S ) :   0.9273
B( 10-S , 16-C ) :   1.0100 B( 11-S , 14-C ) :   1.0119 B( 12-S , 15-C ) :   1.0101
B( 13-S , 17-C ) :   1.0118 B( 14-C , 18-C ) :   0.8669 B( 14-C , 23-H ) :   0.9682
B( 14-C , 24-H ) :   0.9781 B( 15-C , 25-C ) :   0.8673 B( 15-C , 30-H ) :   0.9781
B( 15-C , 31-H ) :   0.9677 B( 16-C , 18-C ) :   0.8680 B( 16-C , 19-H ) :   0.9779
B( 16-C , 20-H ) :   0.9679 B( 17-C , 25-C ) :   0.8666 B( 17-C , 26-H ) :   0.9681
B( 17-C , 27-H ) :   0.9781 B( 18-C , 21-H ) :   0.9476 B( 18-C , 22-H ) :   0.9737
B( 25-C , 28-H ) :   0.9738 B( 25-C , 29-H ) :   0.9472

FINAL SINGLE POINT ENERGY     -4592.672572107860

DIPOLE MOMENT
-------------
                                X             Y             Z
Electronic contribution:     12.97100     -10.83934     -21.20934
Nuclear contribution   :    -14.26502      11.92059      23.32647
                        -----------------------------------------
Total Dipole Moment    :     -1.29402       1.08125       2.11713
                        -----------------------------------------
Magnitude (a.u.)       :      2.70663
Magnitude (Debye)      :      6.87970

Rotational constants in cm-1:     0.011738     0.002546     0.002391
Rotational constants in MHz :   351.885764    76.318579    71.693671

                             ****ORCA TERMINATED NORMALLY****
TOTAL RUN TIME: 0 days 0 hours 43 minutes 34 seconds 744 msec
