                         Program Version 5.0.4 -  RELEASE  -
|  1> ! nofrozencore ReducedPop printbasis
|  2> ! B3LYP TZVP
|  3>
|  4> %basis
|  5> newgto V "CP(PPP)" end
|  6> end
|  7>
|  8> %pal
|  9> nprocs 4
| 10> end
| 11>
| 12> % sym SymThresh 1e-2 end
| 13> * xyz -2 2
| 14> V -0.6850104171733462 -0.29144146270236815 -0.830651485093419
| 15> S 0.6595283670599508 -2.253472361505574 -0.24668000081021207
| 16> S -1.862076849312262 -0.6827072178090016 1.2841246478250512
| 17> S 1.411734457301931 0.49787873693749424 -1.8292059480107614
| 18> S -1.1143062226584532 2.0636280882123117 -0.3086378502174502
| 19> O -1.662527962452208 -0.7130966623740904 -2.0207294160390314
| 20> C -2.5616709717346557 1.1250409391416658 1.444678460120196
| 21> C -2.2740352550955953 2.292956932000511 0.8064451959173101
| 22> C 2.0276886056337786 -2.4091371791527645 -1.0969588369801322
| 23> C 2.301966679586464 -1.243023243521664 -1.7453377661494494
| 24> S -3.9227188956576087 0.9316389950695733 2.9421119941700895
| 25> S -3.047905115320911 3.6224617460538284 1.2273889632591088
| 26> S 3.951599895700099 -0.9198857530242445 -2.913247934771426
| 27> S 3.024635007904904 -3.628169229471002 -1.2532698348420015
| 28> C -2.4213701505171588 4.067157567463065 2.944599393147807
| 29> C 5.250451123654253 -1.0377423168867126 -1.656518204175973
| 30> C -3.1299580789788104 1.9367558540858645 4.226483739111558
| 31> C 4.587365862779793 -3.1498085132216964 -0.31879912909812946
| 32> C -3.222769773686989 3.451995078509106 4.097993130421087
| 33> H -2.0665896691250767 1.6647140893255152 4.167640874563525
| 34> H -3.494759513862448 1.59819000655009 5.2118981050846855
| 35> H -2.853307012971178 3.89593551065661 5.03672084689
| 36> H -4.266677565502447 3.7689349463406128 3.984159719420971
| 37> H -2.6134424913286294 5.153806699009412 2.958392173062373
| 38> H -1.3379040604959633 3.9001557267707176 3.003670958071637
| 39> C 5.6409429419173485 -2.426117408547711 -1.166160123468725
| 40> H 4.9939841953180215 -4.149209466148384 -0.08248632754252183
| 41> H 4.326396357750855 -2.644040946241833 0.6207583706932452
| 42> H 5.892708139494192 -3.080116917737293 -2.0102512711612466
| 43> H 6.5523347509959535 -2.3269386106442567 -0.5544368320952057
| 44> H 4.843365762894559 -0.4881369577818501 -0.7950687300392922
| 45> H 6.134718487328965 -0.47553818711661067 -2.0071499439860148
| 46> *
| 47>
| 48> % eprnmr
| 49> gtensor true
| 50> Nuclei = all H {aiso,adip,aorb,fgrad,rho}
| 51> Nuclei = all V {aiso,adip,aorb,fgrad,rho}
| 52> end
| 53>
| 54>                          ****END OF INPUT****

CARTESIAN COORDINATES (ANGSTROEM)
---------------------------------
  V     -0.685800   -0.291716   -0.831494
  S      0.658739   -2.253746   -0.247523
  S     -1.862866   -0.682981    1.283282
  S      1.410945    0.497605   -1.830049
  S     -1.115096    2.063354   -0.309481
  O     -1.663318   -0.713371   -2.021572
  C     -2.562461    1.124767    1.443836
  C     -2.274825    2.292683    0.805603
  C      2.026899   -2.409411   -1.097801
  C      2.301177   -1.243297   -1.746180
  S     -3.923508    0.931365    2.941269
  S     -3.048695    3.622188    1.226546
  S      3.950810   -0.920160   -2.914091
  S      3.023845   -3.628443   -1.254112
  C     -2.422160    4.066883    2.943757
  C      5.249662   -1.038016   -1.657361
  C     -3.130748    1.936482    4.225641
  C      4.586576   -3.150083   -0.319642
  C     -3.223559    3.451721    4.097150
  H     -2.067379    1.664440    4.166798
  H     -3.495549    1.597916    5.211055
  H     -2.854097    3.895661    5.035878
  H     -4.267467    3.768661    3.983317
  H     -2.614232    5.153533    2.957550
  H     -1.338694    3.899882    3.002828
  C      5.640153   -2.426391   -1.167003
  H      4.993195   -4.149484   -0.083329
  H      4.325607   -2.644315    0.619916
  H      5.891919   -3.080391   -2.011094
  H      6.551545   -2.327213   -0.555279
  H      4.842576   -0.488411   -0.795911
  H      6.133929   -0.475812   -2.007993

 Total Charge           Charge          ....   -2
 Multiplicity           Mult            ....    2
 Number of Electrons    NEL             ....  233
 Basis Dimension        Dim             ....  517

ORBITAL ENERGIES
----------------
                 SPIN UP ORBITALS
  NO   OCC          E(Eh)            E(eV)
   0   1.0000    -196.645854     -5351.0057
   1   1.0000     -88.676350     -2413.0062
   2   1.0000     -88.675801     -2412.9912
   3   1.0000     -88.667407     -2412.7628
   4   1.0000     -88.666108     -2412.7274
   5   1.0000     -88.625100     -2411.6116
   6   1.0000     -88.624577     -2411.5973
   7   1.0000     -88.608003     -2411.1463
   8   1.0000     -88.607799     -2411.1408
   9   1.0000     -22.021431      -599.2336
  10   1.0000     -18.862408      -513.2722
  11   1.0000     -18.528222      -504.1786
  12   1.0000     -18.522549      -504.0242
  13   1.0000     -18.522435      -504.0211
  14   1.0000     -10.020683      -272.6767
  15   1.0000     -10.020648      -272.6757
  16   1.0000     -10.010166      -272.3905
  17   1.0000     -10.009500      -272.3723
  18   1.0000     -10.007575      -272.3200
  19   1.0000     -10.006713      -272.2965
  20   1.0000     -10.004241      -272.2292
  21   1.0000     -10.003896      -272.2199
  22   1.0000      -9.984068      -271.6803
  23   1.0000      -9.983669      -271.6695
  24   1.0000      -7.734764      -210.4736
  25   1.0000      -7.734655      -210.4707
  26   1.0000      -7.719526      -210.0590
  27   1.0000      -7.718239      -210.0239
  28   1.0000      -7.675870      -208.8710
  29   1.0000      -7.675478      -208.8604
  30   1.0000      -7.667302      -208.6379
  31   1.0000      -7.667243      -208.6363
  32   1.0000      -5.699768      -155.0986
  33   1.0000      -5.699626      -155.0947
  34   1.0000      -5.695509      -154.9827
  35   1.0000      -5.695368      -154.9788
  36   1.0000      -5.689324      -154.8144
  37   1.0000      -5.689183      -154.8105
  38   1.0000      -5.684549      -154.6844
  39   1.0000      -5.683234      -154.6487
  40   1.0000      -5.681251      -154.5947
  41   1.0000      -5.679978      -154.5600
  42   1.0000      -5.674406      -154.4084
  43   1.0000      -5.673132      -154.3738
  44   1.0000      -5.641690      -153.5182
  45   1.0000      -5.641253      -153.5063
  46   1.0000      -5.634259      -153.3160
  47   1.0000      -5.633895      -153.3061
  48   1.0000      -5.633549      -153.2967
  49   1.0000      -5.633194      -153.2870
  50   1.0000      -5.631491      -153.2407
  51   1.0000      -5.631448      -153.2395
  52   1.0000      -5.625566      -153.0794
  53   1.0000      -5.625488      -153.0773
  54   1.0000      -5.625048      -153.0653
  55   1.0000      -5.625025      -153.0647
  56   1.0000      -2.415226       -65.7216
  57   1.0000      -1.456511       -39.6337
  58   1.0000      -1.445471       -39.3333
  59   1.0000      -1.443584       -39.2819
  60   1.0000      -0.661805       -18.0086
  61   1.0000      -0.659491       -17.9457
  62   1.0000      -0.623128       -16.9562
  63   1.0000      -0.618277       -16.8242
  64   1.0000      -0.617624       -16.8064
  65   1.0000      -0.563414       -15.3313
  66   1.0000      -0.562756       -15.3134
  67   1.0000      -0.506823       -13.7914
  68   1.0000      -0.505061       -13.7434
  69   1.0000      -0.473461       -12.8835
  70   1.0000      -0.471863       -12.8400
  71   1.0000      -0.434317       -11.8184
  72   1.0000      -0.432522       -11.7695
  73   1.0000      -0.403345       -10.9756
  74   1.0000      -0.398240       -10.8367
  75   1.0000      -0.376188       -10.2366
  76   1.0000      -0.374023       -10.1777
  77   1.0000      -0.295420        -8.0388
  78   1.0000      -0.295230        -8.0336
  79   1.0000      -0.281786        -7.6678
  80   1.0000      -0.281538        -7.6610
  81   1.0000      -0.252857        -6.8806
  82   1.0000      -0.249086        -6.7780
  83   1.0000      -0.242091        -6.5876
  84   1.0000      -0.240331        -6.5397
  85   1.0000      -0.199282        -5.4227
  86   1.0000      -0.192575        -5.2402
  87   1.0000      -0.190689        -5.1889
  88   1.0000      -0.188372        -5.1259
  89   1.0000      -0.187403        -5.0995
  90   1.0000      -0.186960        -5.0874
  91   1.0000      -0.180802        -4.9199
  92   1.0000      -0.164653        -4.4804
  93   1.0000      -0.161716        -4.4005
  94   1.0000      -0.158979        -4.3260
  95   1.0000      -0.135532        -3.6880
  96   1.0000      -0.133141        -3.6229
  97   1.0000      -0.101734        -2.7683
  98   1.0000      -0.095369        -2.5951
  99   1.0000      -0.089097        -2.4245
 100   1.0000      -0.086997        -2.3673
 101   1.0000      -0.084708        -2.3050
 102   1.0000      -0.084624        -2.3027
 103   1.0000      -0.072957        -1.9853
 104   1.0000      -0.049247        -1.3401
 105   1.0000      -0.039017        -1.0617
 106   1.0000      -0.036555        -0.9947
 107   1.0000      -0.024894        -0.6774
 108   1.0000      -0.021483        -0.5846
 109   1.0000      -0.010155        -0.2763
 110   1.0000      -0.003076        -0.0837
 111   1.0000      -0.002153        -0.0586
 112   1.0000       0.002232         0.0607
 113   1.0000       0.009554         0.2600
 114   1.0000       0.014383         0.3914
 115   1.0000       0.032825         0.8932
 116   1.0000       0.056859         1.5472
 117   0.0000       0.177346         4.8258
 118   0.0000       0.183611         4.9963
 119   0.0000       0.195336         5.3154
 120   0.0000       0.195625         5.3232
 121   0.0000       0.205343         5.5877

                 SPIN DOWN ORBITALS
  NO   OCC          E(Eh)            E(eV)
   0   1.0000    -196.645995     -5351.0096
   1   1.0000     -88.676358     -2413.0064
   2   1.0000     -88.675809     -2412.9914
   3   1.0000     -88.667415     -2412.7630
   4   1.0000     -88.666115     -2412.7277
   5   1.0000     -88.625302     -2411.6171
   6   1.0000     -88.624775     -2411.6027
   7   1.0000     -88.608130     -2411.1498
   8   1.0000     -88.607922     -2411.1441
   9   1.0000     -22.006686      -598.8324
  10   1.0000     -18.866035      -513.3709
  11   1.0000     -18.523046      -504.0377
  12   1.0000     -18.506961      -503.6000
  13   1.0000     -18.506251      -503.5807
  14   1.0000     -10.020684      -272.6767
  15   1.0000     -10.020648      -272.6757
  16   1.0000     -10.010162      -272.3904
  17   1.0000     -10.009496      -272.3722
  18   1.0000     -10.007204      -272.3099
  19   1.0000     -10.006348      -272.2866
  20   1.0000     -10.004240      -272.2292
  21   1.0000     -10.003895      -272.2198
  22   1.0000      -9.983896      -271.6756
  23   1.0000      -9.983497      -271.6648
  24   1.0000      -7.734773      -210.4739
  25   1.0000      -7.734663      -210.4709
  26   1.0000      -7.719534      -210.0592
  27   1.0000      -7.718246      -210.0242
  28   1.0000      -7.676059      -208.8762
  29   1.0000      -7.675664      -208.8654
  30   1.0000      -7.667416      -208.6410
  31   1.0000      -7.667360      -208.6395
  32   1.0000      -5.699780      -155.0989
  33   1.0000      -5.699639      -155.0950
  34   1.0000      -5.695529      -154.9832
  35   1.0000      -5.695388      -154.9794
  36   1.0000      -5.689322      -154.8143
  37   1.0000      -5.689180      -154.8105
  38   1.0000      -5.684556      -154.6846
  39   1.0000      -5.683240      -154.6488
  40   1.0000      -5.681258      -154.5949
  41   1.0000      -5.679984      -154.5602
  42   1.0000      -5.674425      -154.4090
  43   1.0000      -5.673151      -154.3743
  44   1.0000      -5.641924      -153.5246
  45   1.0000      -5.641482      -153.5125
  46   1.0000      -5.634749      -153.3293
  47   1.0000      -5.634377      -153.3192
  48   1.0000      -5.633706      -153.3009
  49   1.0000      -5.633348      -153.2912
  50   1.0000      -5.631622      -153.2442
  51   1.0000      -5.631582      -153.2431
  52   1.0000      -5.625871      -153.0877
  53   1.0000      -5.625801      -153.0858
  54   1.0000      -5.625149      -153.0681
  55   1.0000      -5.625132      -153.0676
  56   1.0000      -2.370858       -64.5143
  57   1.0000      -1.437524       -39.1170
  58   1.0000      -1.384072       -37.6625
  59   1.0000      -1.382214       -37.6120
  60   1.0000      -0.661692       -18.0055
  61   1.0000      -0.659385       -17.9428
  62   1.0000      -0.630858       -17.1665
  63   1.0000      -0.618276       -16.8241
  64   1.0000      -0.617611       -16.8060
  65   1.0000      -0.563365       -15.3299
  66   1.0000      -0.562705       -15.3120
  67   1.0000      -0.506899       -13.7934
  68   1.0000      -0.505144       -13.7457
  69   1.0000      -0.473400       -12.8819
  70   1.0000      -0.471804       -12.8384
  71   1.0000      -0.434425       -11.8213
  72   1.0000      -0.432634       -11.7726
  73   1.0000      -0.403568       -10.9816
  74   1.0000      -0.398513       -10.8441
  75   1.0000      -0.376117       -10.2347
  76   1.0000      -0.374008       -10.1773
  77   1.0000      -0.295392        -8.0380
  78   1.0000      -0.295203        -8.0329
  79   1.0000      -0.281770        -7.6673
  80   1.0000      -0.281521        -7.6606
  81   1.0000      -0.252645        -6.8748
  82   1.0000      -0.249018        -6.7761
  83   1.0000      -0.242020        -6.5857
  84   1.0000      -0.240263        -6.5379
  85   1.0000      -0.198198        -5.3932
  86   1.0000      -0.192526        -5.2389
  87   1.0000      -0.190414        -5.1814
  88   1.0000      -0.188320        -5.1244
  89   1.0000      -0.187257        -5.0955
  90   1.0000      -0.186110        -5.0643
  91   1.0000      -0.180320        -4.9068
  92   1.0000      -0.164321        -4.4714
  93   1.0000      -0.161392        -4.3917
  94   1.0000      -0.158640        -4.3168
  95   1.0000      -0.135182        -3.6785
  96   1.0000      -0.132790        -3.6134
  97   1.0000      -0.100257        -2.7281
  98   1.0000      -0.095073        -2.5871
  99   1.0000      -0.088214        -2.4004
 100   1.0000      -0.087365        -2.3773
 101   1.0000      -0.086478        -2.3532
 102   1.0000      -0.083343        -2.2679
 103   1.0000      -0.074279        -2.0212
 104   1.0000      -0.046778        -1.2729
 105   1.0000      -0.039014        -1.0616
 106   1.0000      -0.034485        -0.9384
 107   1.0000      -0.024719        -0.6726
 108   1.0000      -0.019890        -0.5412
 109   1.0000      -0.010281        -0.2797
 110   1.0000      -0.002795        -0.0761
 111   1.0000      -0.001771        -0.0482
 112   1.0000       0.003887         0.1058
 113   1.0000       0.010342         0.2814
 114   1.0000       0.033158         0.9023
 115   1.0000       0.056142         1.5277
 116   0.0000       0.177318         4.8251
 117   0.0000       0.178397         4.8544
 118   0.0000       0.185965         5.0604
 119   0.0000       0.196130         5.3370
 120   0.0000       0.196239         5.3399

MULLIKEN ATOMIC CHARGES AND SPIN POPULATIONS
--------------------------------------------
   0 V :    0.436366    1.199512
   1 S :   -0.224950   -0.017129
   2 S :   -0.259492   -0.033276
   3 S :   -0.258988   -0.034266
   4 S :   -0.225425   -0.017829
   5 O :   -0.498911   -0.140555
   6 C :   -0.137311    0.016821
   7 C :   -0.101356    0.002905
   8 C :   -0.098304    0.002864
   9 C :   -0.139650    0.017298
  10 S :   -0.105765   -0.000013
  11 S :    0.000836    0.001160
  12 S :   -0.110646    0.000008
  13 S :    0.002997    0.001273
  14 C :   -0.330193    0.000143
  15 C :   -0.337102    0.000255
  16 C :   -0.337435    0.000256
  17 C :   -0.328877    0.000172
  18 C :   -0.077735    0.000154
  19 H :    0.145251   -0.000066
  20 H :    0.101508    0.000127
  21 H :    0.045523    0.000067
  22 H :    0.076651    0.000017
  23 H :    0.093684   -0.000041
  24 H :    0.143231   -0.000071
  25 C :   -0.077394    0.000160
  26 H :    0.092623   -0.000035
  27 H :    0.142827   -0.000074
  28 H :    0.076171    0.000013
  29 H :    0.045642    0.000071
  30 H :    0.145378   -0.000057
  31 H :    0.100845    0.000136
Sum of atomic charges         :   -2.0000000

LOEWDIN ATOMIC CHARGES AND SPIN POPULATIONS
-------------------------------------------
   0 V :   -0.238779    1.152935
   1 S :    0.163760   -0.010657
   2 S :    0.034250   -0.023652
   3 S :    0.031129   -0.024464
   4 S :    0.159588   -0.011309
   5 O :   -0.345718   -0.125986
   6 C :   -0.428361    0.015858
   7 C :   -0.682348    0.005729
   8 C :   -0.689320    0.005712
   9 C :   -0.421113    0.016197
  10 S :    0.233428   -0.000634
  11 S :    0.429279    0.000055
  12 S :    0.226226   -0.000591
  13 S :    0.435005    0.000176
  14 C :   -0.274572    0.000025
  15 C :   -0.322493    0.000194
  16 C :   -0.320781    0.000192
  17 C :   -0.273912    0.000051
  18 C :   -0.185341   -0.000011
  19 H :    0.064249    0.000017
  20 H :    0.048253    0.000085
  21 H :    0.047399    0.000026
  22 H :    0.052969    0.000015
  23 H :    0.047656   -0.000029
  24 H :    0.067310   -0.000029
  25 C :   -0.185412   -0.000009
  26 H :    0.047648   -0.000027
  27 H :    0.067319   -0.000029
  28 H :    0.052895    0.000014
  29 H :    0.047409    0.000030
  30 H :    0.064161    0.000023
  31 H :    0.048218    0.000095

  Mayer bond orders larger than 0.100000
B(  0-V ,  1-S ) :   0.7728 B(  0-V ,  2-S ) :   0.8039 B(  0-V ,  3-S ) :   0.8027
B(  0-V ,  4-S ) :   0.7741 B(  0-V ,  5-O ) :   2.1151 B(  1-S ,  8-C ) :   1.1866
B(  2-S ,  6-C ) :   1.0729 B(  3-S ,  9-C ) :   1.0698 B(  4-S ,  7-C ) :   1.1879
B(  6-C ,  7-C ) :   1.4065 B(  6-C , 10-S ) :   0.8602 B(  7-C , 11-S ) :   1.1033
B(  8-C ,  9-C ) :   1.3952 B(  8-C , 13-S ) :   1.1151 B(  9-C , 12-S ) :   0.8533
B( 10-S , 16-C ) :   1.0517 B( 11-S , 14-C ) :   0.9482 B( 12-S , 15-C ) :   1.0545
B( 13-S , 17-C ) :   0.9445 B( 14-C , 18-C ) :   0.8960 B( 14-C , 23-H ) :   0.9805
B( 14-C , 24-H ) :   0.9628 B( 15-C , 25-C ) :   0.8622 B( 15-C , 30-H ) :   0.9863
B( 15-C , 31-H ) :   0.9586 B( 16-C , 18-C ) :   0.8632 B( 16-C , 19-H ) :   0.9860
B( 16-C , 20-H ) :   0.9590 B( 17-C , 25-C ) :   0.8968 B( 17-C , 26-H ) :   0.9809
B( 17-C , 27-H ) :   0.9619 B( 18-C , 21-H ) :   0.9530 B( 18-C , 22-H ) :   0.9719
B( 25-C , 28-H ) :   0.9718 B( 25-C , 29-H ) :   0.9531

FINAL SINGLE POINT ENERGY     -4592.569639297594

DIPOLE MOMENT
-------------
                                X             Y             Z
Electronic contribution:    -16.48618      -6.96948     -19.93986
Nuclear contribution   :     18.27836       7.74212      22.16323
                        -----------------------------------------
Total Dipole Moment    :      1.79218       0.77263       2.22337
                        -----------------------------------------
Magnitude (a.u.)       :      2.95842
Magnitude (Debye)      :      7.51969

Rotational constants in cm-1:     0.012736     0.002548     0.002430
Rotational constants in MHz :   381.820831    76.389778    72.840039

                             ****ORCA TERMINATED NORMALLY****
TOTAL RUN TIME: 0 days 0 hours 43 minutes 20 seconds 902 msec
