                         Program Version 5.0.4 -  RELEASE  -
|  1> ! nofrozencore ReducedPop printbasis
|  2> ! B3LYP TZVP
|  3>
|  4> %basis
|  5> newgto V "CP(PPP)" end
|  6> end
|  7>
|  8> %pal
|  9> nprocs 8
| 10> end
| 11>
| 12> % sym SymThresh 1e-2 end
| 13> * xyz -2 2
| 14> V 0.5516792989346558 -0.9662117253551319 -0.0778882561894012
| 15> S -0.7532241657027544 -1.020343860185767 1.9956559479658809
| 16> S -1.5942490464575947 -1.2275882662444892 -1.228624447072782
| 17> S 1.9527535861480876 0.6035046818223512 1.1760027968029187
| 18> S 1.1250249234452454 0.3682077535413507 -2.0521714204559163
| 19> O 1.3400496207405677 -2.350934682151399 -0.18380889149266444
| 20> C -1.2600638983804027 -0.707294787777092 -2.87945241552465
| 21> C -0.1284372059359368 -0.041515448513512083 -3.2221770234198948
| 22> C 0.3303792140559355 -0.3092647004810273 3.200586802906174
| 23> C 1.4586061350017563 0.36748919335508445 2.8569775302769655
| 24> S -2.5643507566640764 -1.1111903104646585 -4.081211491781801
| 25> S 0.20301604778934762 0.5234590572857815 -4.918925736844121
| 26> S 2.5456649639471505 1.126270407686649 4.078971945552004
| 27> S -0.1975486265043807 -0.5208574952740396 4.910081747156669
| 28> C -1.0513000204543612 1.7720468968708565 -5.13967014460549
| 29> C 1.5028635465309073 2.49297874957518 4.776546250004925
| 30> C -3.196899393779385 0.5045025339301171 -4.49262799432282
| 31> C -0.6431691683689943 1.2038587122165354 5.4277913066025185
| 32> C -2.5276293137607198 1.4020121099253005 -5.636996369083656
| 33> H -3.3755082734616346 1.0243260257059927 -3.542532369553089
| 34> H -4.187519615814241 0.14729462741560537 -4.833248233108088
| 35> H -3.1473494911182667 2.185177471953698 -6.157743303261727
| 36> H -2.277525081229145 0.5932559454260884 -6.392694682753414
| 37> H -0.5171964195859029 2.31825835258989 -5.940587815926109
| 38> H -1.0102916797215573 2.420485785158199 -4.254891227371917
| 39> C 0.5232825203457481 2.0758755715846204 5.8602681181847665
| 40> H -1.3458538181643978 1.0959922650144576 6.260155586849404
| 41> H -1.177484519635247 1.6634025177611709 4.593229723312361
| 42> H 1.0579737825259947 1.6068364940945343 6.693841187607204
| 43> H 0.08132626139603963 3.008678826606133 6.250931523456427
| 44> H 0.9744526131276935 2.9548311948204105 3.939492960987466
| 45> H 2.203197720515961 3.2301904311683773 5.181843539639587
| 46> *
| 47>
| 48> % eprnmr
| 49> gtensor true
| 50> Nuclei = all H {aiso,adip,aorb,fgrad,rho}
| 51> Nuclei = all V {aiso,adip,aorb,fgrad,rho}
| 52> end
| 53>
| 54>                          ****END OF INPUT****

CARTESIAN COORDINATES (ANGSTROEM)
---------------------------------
  V      0.552239   -0.967246   -0.078048
  S     -0.752664   -1.021378    1.995496
  S     -1.593689   -1.228622   -1.228784
  S      1.953313    0.602471    1.175843
  S      1.125585    0.367174   -2.052331
  O      1.340609   -2.351969   -0.183969
  C     -1.259504   -0.708329   -2.879612
  C     -0.127877   -0.042550   -3.222337
  C      0.330939   -0.310299    3.200427
  C      1.459166    0.366455    2.856818
  S     -2.563791   -1.112224   -4.081371
  S      0.203576    0.522425   -4.919085
  S      2.546225    1.125236    4.078812
  S     -0.196989   -0.521892    4.909922
  C     -1.050740    1.771013   -5.139830
  C      1.503423    2.491945    4.776387
  C     -3.196340    0.503468   -4.492788
  C     -0.642609    1.202825    5.427632
  C     -2.527069    1.400978   -5.637156
  H     -3.374948    1.023292   -3.542692
  H     -4.186960    0.146260   -4.833408
  H     -3.146790    2.184143   -6.157903
  H     -2.276965    0.592222   -6.392854
  H     -0.516637    2.317224   -5.940747
  H     -1.009732    2.419452   -4.255051
  C      0.523842    2.074841    5.860108
  H     -1.345294    1.094958    6.259996
  H     -1.176925    1.662368    4.593070
  H      1.058534    1.605802    6.693682
  H      0.081886    3.007645    6.250772
  H      0.975012    2.953797    3.939333
  H      2.203758    3.229156    5.181684

 Total Charge           Charge          ....   -2
 Multiplicity           Mult            ....    2
 Number of Electrons    NEL             ....  233
 Basis Dimension        Dim             ....  517

ORBITAL ENERGIES
----------------
                 SPIN UP ORBITALS
  NO   OCC          E(Eh)            E(eV)
   0   1.0000    -196.640234     -5350.8528
   1   1.0000     -88.679125     -2413.0817
   2   1.0000     -88.679028     -2413.0790
   3   1.0000     -88.676150     -2413.0007
   4   1.0000     -88.676019     -2412.9971
   5   1.0000     -88.612068     -2411.2570
   6   1.0000     -88.611789     -2411.2494
   7   1.0000     -88.611602     -2411.2443
   8   1.0000     -88.611586     -2411.2438
   9   1.0000     -22.016047      -599.0871
  10   1.0000     -18.857181      -513.1300
  11   1.0000     -18.522858      -504.0326
  12   1.0000     -18.517102      -503.8759
  13   1.0000     -18.517064      -503.8749
  14   1.0000     -10.020371      -272.6682
  15   1.0000     -10.017689      -272.5952
  16   1.0000     -10.017631      -272.5936
  17   1.0000     -10.015508      -272.5358
  18   1.0000     -10.015473      -272.5349
  19   1.0000     -10.003657      -272.2134
  20   1.0000      -9.991967      -271.8952
  21   1.0000      -9.991257      -271.8759
  22   1.0000      -9.990132      -271.8453
  23   1.0000      -9.989401      -271.8254
  24   1.0000      -7.733443      -210.4377
  25   1.0000      -7.733348      -210.4351
  26   1.0000      -7.729732      -210.3367
  27   1.0000      -7.729606      -210.3333
  28   1.0000      -7.666509      -208.6163
  29   1.0000      -7.666223      -208.6085
  30   1.0000      -7.666165      -208.6070
  31   1.0000      -7.666116      -208.6056
  32   1.0000      -5.698629      -155.0676
  33   1.0000      -5.698532      -155.0649
  34   1.0000      -5.694985      -154.9684
  35   1.0000      -5.694862      -154.9651
  36   1.0000      -5.694637      -154.9589
  37   1.0000      -5.694542      -154.9564
  38   1.0000      -5.691096      -154.8626
  39   1.0000      -5.690966      -154.8590
  40   1.0000      -5.688260      -154.7854
  41   1.0000      -5.688167      -154.7829
  42   1.0000      -5.684476      -154.6824
  43   1.0000      -5.684347      -154.6789
  44   1.0000      -5.631346      -153.2367
  45   1.0000      -5.631071      -153.2292
  46   1.0000      -5.631002      -153.2273
  47   1.0000      -5.630946      -153.2258
  48   1.0000      -5.624942      -153.0624
  49   1.0000      -5.624653      -153.0546
  50   1.0000      -5.624613      -153.0535
  51   1.0000      -5.624585      -153.0527
  52   1.0000      -5.624496      -153.0503
  53   1.0000      -5.624194      -153.0421
  54   1.0000      -5.624124      -153.0402
  55   1.0000      -5.624090      -153.0393
  56   1.0000      -2.409722       -65.5719
  57   1.0000      -1.451034       -39.4846
  58   1.0000      -1.439516       -39.1712
  59   1.0000      -1.438433       -39.1417
  60   1.0000      -0.644659       -17.5421
  61   1.0000      -0.640981       -17.4420
  62   1.0000      -0.618185       -16.8217
  63   1.0000      -0.594643       -16.1811
  64   1.0000      -0.587021       -15.9736
  65   1.0000      -0.584092       -15.8939
  66   1.0000      -0.574651       -15.6370
  67   1.0000      -0.494725       -13.4621
  68   1.0000      -0.489578       -13.3221
  69   1.0000      -0.487779       -13.2731
  70   1.0000      -0.482268       -13.1232
  71   1.0000      -0.422571       -11.4987
  72   1.0000      -0.413872       -11.2620
  73   1.0000      -0.413711       -11.2576
  74   1.0000      -0.407690       -11.0938
  75   1.0000      -0.375445       -10.2164
  76   1.0000      -0.371103       -10.0982
  77   1.0000      -0.294013        -8.0005
  78   1.0000      -0.284410        -7.7392
  79   1.0000      -0.277713        -7.5570
  80   1.0000      -0.277417        -7.5489
  81   1.0000      -0.263562        -7.1719
  82   1.0000      -0.256788        -6.9876
  83   1.0000      -0.241825        -6.5804
  84   1.0000      -0.231379        -6.2961
  85   1.0000      -0.196151        -5.3375
  86   1.0000      -0.194604        -5.2955
  87   1.0000      -0.192534        -5.2391
  88   1.0000      -0.183385        -4.9901
  89   1.0000      -0.182597        -4.9687
  90   1.0000      -0.176747        -4.8095
  91   1.0000      -0.176393        -4.7999
  92   1.0000      -0.152594        -4.1523
  93   1.0000      -0.150414        -4.0930
  94   1.0000      -0.144828        -3.9410
  95   1.0000      -0.142802        -3.8858
  96   1.0000      -0.139533        -3.7969
  97   1.0000      -0.098941        -2.6923
  98   1.0000      -0.095017        -2.5855
  99   1.0000      -0.092592        -2.5195
 100   1.0000      -0.084796        -2.3074
 101   1.0000      -0.080222        -2.1829
 102   1.0000      -0.079766        -2.1706
 103   1.0000      -0.070563        -1.9201
 104   1.0000      -0.049587        -1.3493
 105   1.0000      -0.039263        -1.0684
 106   1.0000      -0.038215        -1.0399
 107   1.0000      -0.036224        -0.9857
 108   1.0000      -0.032155        -0.8750
 109   1.0000      -0.013640        -0.3712
 110   1.0000      -0.004324        -0.1177
 111   1.0000      -0.003623        -0.0986
 112   1.0000       0.006039         0.1643
 113   1.0000       0.010309         0.2805
 114   1.0000       0.016087         0.4377
 115   1.0000       0.034047         0.9265
 116   1.0000       0.060313         1.6412
 117   0.0000       0.189370         5.1530
 118   0.0000       0.195837         5.3290
 119   0.0000       0.197812         5.3827
 120   0.0000       0.198325         5.3967
 121   0.0000       0.211632         5.7588

                 SPIN DOWN ORBITALS
  NO   OCC          E(Eh)            E(eV)
   0   1.0000    -196.640375     -5350.8566
   1   1.0000     -88.679139     -2413.0820
   2   1.0000     -88.679041     -2413.0794
   3   1.0000     -88.676163     -2413.0011
   4   1.0000     -88.676032     -2412.9975
   5   1.0000     -88.612228     -2411.2613
   6   1.0000     -88.611950     -2411.2537
   7   1.0000     -88.611760     -2411.2486
   8   1.0000     -88.611744     -2411.2481
   9   1.0000     -22.001368      -598.6877
  10   1.0000     -18.860772      -513.2277
  11   1.0000     -18.517721      -503.8928
  12   1.0000     -18.501601      -503.4541
  13   1.0000     -18.500921      -503.4357
  14   1.0000     -10.020372      -272.6682
  15   1.0000     -10.017685      -272.5951
  16   1.0000     -10.017628      -272.5935
  17   1.0000     -10.015504      -272.5357
  18   1.0000     -10.015469      -272.5348
  19   1.0000     -10.003657      -272.2134
  20   1.0000      -9.991711      -271.8883
  21   1.0000      -9.991004      -271.8690
  22   1.0000      -9.989882      -271.8385
  23   1.0000      -9.989152      -271.8187
  24   1.0000      -7.733457      -210.4381
  25   1.0000      -7.733362      -210.4355
  26   1.0000      -7.729745      -210.3371
  27   1.0000      -7.729619      -210.3336
  28   1.0000      -7.666658      -208.6204
  29   1.0000      -7.666373      -208.6126
  30   1.0000      -7.666312      -208.6110
  31   1.0000      -7.666263      -208.6096
  32   1.0000      -5.698648      -155.0681
  33   1.0000      -5.698550      -155.0654
  34   1.0000      -5.695001      -154.9689
  35   1.0000      -5.694878      -154.9655
  36   1.0000      -5.694656      -154.9595
  37   1.0000      -5.694562      -154.9569
  38   1.0000      -5.691116      -154.8631
  39   1.0000      -5.690986      -154.8596
  40   1.0000      -5.688277      -154.7859
  41   1.0000      -5.688184      -154.7834
  42   1.0000      -5.684493      -154.6829
  43   1.0000      -5.684364      -154.6794
  44   1.0000      -5.631518      -153.2414
  45   1.0000      -5.631244      -153.2339
  46   1.0000      -5.631171      -153.2320
  47   1.0000      -5.631115      -153.2304
  48   1.0000      -5.625334      -153.0731
  49   1.0000      -5.625047      -153.0653
  50   1.0000      -5.625000      -153.0640
  51   1.0000      -5.624972      -153.0633
  52   1.0000      -5.624631      -153.0540
  53   1.0000      -5.624329      -153.0458
  54   1.0000      -5.624258      -153.0438
  55   1.0000      -5.624222      -153.0429
  56   1.0000      -2.365510       -64.3688
  57   1.0000      -1.432177       -38.9715
  58   1.0000      -1.378069       -37.4992
  59   1.0000      -1.377426       -37.4817
  60   1.0000      -0.644612       -17.5408
  61   1.0000      -0.640916       -17.4402
  62   1.0000      -0.625882       -17.0311
  63   1.0000      -0.594442       -16.1756
  64   1.0000      -0.587024       -15.9737
  65   1.0000      -0.583912       -15.8891
  66   1.0000      -0.574644       -15.6369
  67   1.0000      -0.494745       -13.4627
  68   1.0000      -0.489611       -13.3230
  69   1.0000      -0.487785       -13.2733
  70   1.0000      -0.482314       -13.1244
  71   1.0000      -0.422844       -11.5062
  72   1.0000      -0.413973       -11.2648
  73   1.0000      -0.413878       -11.2622
  74   1.0000      -0.407785       -11.0964
  75   1.0000      -0.375411       -10.2155
  76   1.0000      -0.371115       -10.0986
  77   1.0000      -0.293996        -8.0000
  78   1.0000      -0.284387        -7.7386
  79   1.0000      -0.277696        -7.5565
  80   1.0000      -0.277403        -7.5485
  81   1.0000      -0.263419        -7.1680
  82   1.0000      -0.256725        -6.9858
  83   1.0000      -0.241726        -6.5777
  84   1.0000      -0.231282        -6.2935
  85   1.0000      -0.195643        -5.3237
  86   1.0000      -0.194573        -5.2946
  87   1.0000      -0.192455        -5.2370
  88   1.0000      -0.183248        -4.9864
  89   1.0000      -0.181842        -4.9482
  90   1.0000      -0.176650        -4.8069
  91   1.0000      -0.175112        -4.7650
  92   1.0000      -0.152364        -4.1460
  93   1.0000      -0.149788        -4.0759
  94   1.0000      -0.144609        -3.9350
  95   1.0000      -0.142549        -3.8790
  96   1.0000      -0.139409        -3.7935
  97   1.0000      -0.097571        -2.6550
  98   1.0000      -0.094529        -2.5723
  99   1.0000      -0.092304        -2.5117
 100   1.0000      -0.084930        -2.3111
 101   1.0000      -0.082102        -2.2341
 102   1.0000      -0.079328        -2.1586
 103   1.0000      -0.071883        -1.9560
 104   1.0000      -0.045643        -1.2420
 105   1.0000      -0.039326        -1.0701
 106   1.0000      -0.037376        -1.0171
 107   1.0000      -0.035372        -0.9625
 108   1.0000      -0.032125        -0.8742
 109   1.0000      -0.012725        -0.3463
 110   1.0000      -0.005672        -0.1544
 111   1.0000      -0.002528        -0.0688
 112   1.0000       0.006788         0.1847
 113   1.0000       0.011205         0.3049
 114   1.0000       0.034321         0.9339
 115   1.0000       0.059527         1.6198
 116   0.0000       0.185453         5.0464
 117   0.0000       0.190549         5.1851
 118   0.0000       0.195969         5.3326
 119   0.0000       0.198737         5.4079
 120   0.0000       0.198787         5.4093

MULLIKEN ATOMIC CHARGES AND SPIN POPULATIONS
--------------------------------------------
   0 V :    0.448804    1.199764
   1 S :   -0.253725   -0.024389
   2 S :   -0.256982   -0.023745
   3 S :   -0.252979   -0.024216
   4 S :   -0.257569   -0.023687
   5 O :   -0.506717   -0.139111
   6 C :   -0.121103    0.008554
   7 C :   -0.119186    0.008593
   8 C :   -0.114859    0.008999
   9 C :   -0.115238    0.008884
  10 S :   -0.032564   -0.000289
  11 S :   -0.032366   -0.000319
  12 S :   -0.047007   -0.000187
  13 S :   -0.046233   -0.000199
  14 C :   -0.332811    0.000368
  15 C :   -0.338570    0.000291
  16 C :   -0.331731    0.000353
  17 C :   -0.338374    0.000311
  18 C :   -0.105239    0.000115
  19 H :    0.150012   -0.000113
  20 H :    0.083790    0.000017
  21 H :    0.077842    0.000128
  22 H :    0.070964   -0.000064
  23 H :    0.083713    0.000017
  24 H :    0.150504   -0.000113
  25 C :   -0.079902    0.000142
  26 H :    0.102763    0.000030
  27 H :    0.146126   -0.000107
  28 H :    0.079112    0.000023
  29 H :    0.040495    0.000027
  30 H :    0.146288   -0.000104
  31 H :    0.102743    0.000027
Sum of atomic charges         :   -2.0000000

LOEWDIN ATOMIC CHARGES AND SPIN POPULATIONS
-------------------------------------------
   0 V :   -0.241225    1.153838
   1 S :    0.087594   -0.016522
   2 S :    0.087421   -0.016080
   3 S :    0.088788   -0.016365
   4 S :    0.086799   -0.016058
   5 O :   -0.351257   -0.124527
   6 C :   -0.550032    0.009783
   7 C :   -0.549558    0.009752
   8 C :   -0.553387    0.010021
   9 C :   -0.553312    0.009980
  10 S :    0.358011   -0.001116
  11 S :    0.357976   -0.001131
  12 S :    0.333421   -0.001040
  13 S :    0.334364   -0.001037
  14 C :   -0.314952    0.000147
  15 C :   -0.291187    0.000171
  16 C :   -0.315036    0.000140
  17 C :   -0.291217    0.000183
  18 C :   -0.195118   -0.000066
  19 H :    0.062937   -0.000037
  20 H :    0.042522    0.000006
  21 H :    0.056493    0.000020
  22 H :    0.061428    0.000009
  23 H :    0.042527    0.000007
  24 H :    0.063101   -0.000037
  25 C :   -0.185864   -0.000036
  26 H :    0.048150    0.000010
  27 H :    0.066409   -0.000026
  28 H :    0.053101    0.000011
  29 H :    0.046521    0.000019
  30 H :    0.066453   -0.000026
  31 H :    0.048128    0.000008

  Mayer bond orders larger than 0.100000
B(  0-V ,  1-S ) :   0.7894 B(  0-V ,  2-S ) :   0.7888 B(  0-V ,  3-S ) :   0.7906
B(  0-V ,  4-S ) :   0.7864 B(  0-V ,  5-O ) :   2.1080 B(  1-S ,  8-C ) :   1.1367
B(  2-S ,  6-C ) :   1.1390 B(  3-S ,  9-C ) :   1.1382 B(  4-S ,  7-C ) :   1.1394
B(  6-C ,  7-C ) :   1.5260 B(  6-C , 10-S ) :   0.9427 B(  7-C , 11-S ) :   0.9424
B(  8-C ,  9-C ) :   1.5150 B(  8-C , 13-S ) :   0.9554 B(  9-C , 12-S ) :   0.9541
B( 10-S , 16-C ) :   1.0286 B( 11-S , 14-C ) :   1.0286 B( 12-S , 15-C ) :   1.0028
B( 13-S , 17-C ) :   1.0025 B( 14-C , 18-C ) :   0.8568 B( 14-C , 23-H ) :   0.9763
B( 14-C , 24-H ) :   0.9629 B( 15-C , 25-C ) :   0.8810 B( 15-C , 30-H ) :   0.9760
B( 15-C , 31-H ) :   0.9688 B( 16-C , 18-C ) :   0.8568 B( 16-C , 19-H ) :   0.9631
B( 16-C , 20-H ) :   0.9762 B( 17-C , 25-C ) :   0.8814 B( 17-C , 26-H ) :   0.9689
B( 17-C , 27-H ) :   0.9758 B( 18-C , 21-H ) :   0.9303 B( 18-C , 22-H ) :   0.9955
B( 25-C , 28-H ) :   0.9694 B( 25-C , 29-H ) :   0.9548

FINAL SINGLE POINT ENERGY     -4592.694934797173

DIPOLE MOMENT
-------------
                                X             Y             Z
Electronic contribution:     13.02077     -22.76086      -1.81498
Nuclear contribution   :    -14.48333      25.33558       2.04651
                        -----------------------------------------
Total Dipole Moment    :     -1.46256       2.57472       0.23152
                        -----------------------------------------
Magnitude (a.u.)       :      2.97017
Magnitude (Debye)      :      7.54957

Rotational constants in cm-1:     0.012768     0.002548     0.002430
Rotational constants in MHz :   382.777126    76.401848    72.852517

                             ****ORCA TERMINATED NORMALLY****
TOTAL RUN TIME: 0 days 0 hours 27 minutes 56 seconds 930 msec
