                         Program Version 5.0.4 -  RELEASE  -
|  1> ! nofrozencore ReducedPop printbasis
|  2> ! B3LYP TZVP
|  3>
|  4> %basis
|  5> newgto V "CP(PPP)" end
|  6> end
|  7>
|  8> %pal
|  9> nprocs 8
| 10> end
| 11>
| 12> % sym SymThresh 1e-2 end
| 13> * xyz -2 2
| 14> V 0.2345329216164783 1.0781846262288504 -0.18314478782589835
| 15> S 1.5928517880639304 0.3067123157209317 1.727043183673368
| 16> S 1.7964504069260347 -0.2697869469286379 -1.5037969020609827
| 17> S -1.656517547362218 0.941712096209436 1.4038620870900718
| 18> S -1.4414298541401622 0.3926527013692782 -1.8401072057015808
| 19> O 0.5658853925179849 2.6220806896068485 -0.41031833363699405
| 20> C 0.9348793721252354 -0.35447316413449714 -3.0776757416914804
| 21> C -0.397360071939215 -0.08101143611491723 -3.2171202523413798
| 22> C 0.5358534437194763 0.7230363506093131 3.112029442351172
| 23> C -0.799732509002141 0.9825730152199571 2.977821332933476
| 24> S 1.9158745405964048 -1.1478517399822916 -4.396423458076592
| 25> S -1.3417401435585388 -0.4882964557039057 -4.731443288332273
| 26> S -1.9282363693671667 1.1090807498475073 4.40769973243521
| 27> S 1.3368023019966644 0.47230169307912867 4.737879510693788
| 28> C -1.3004980657092093 -2.3401535338897013 -4.964385360448577
| 29> C -1.9511165977628666 -0.5512611094634801 5.252285621687034
| 30> C 1.2218378284175533 -2.851633810817268 -4.710713181706318
| 31> C 0.5756127020665935 -1.0448672414177744 5.50589379413312
| 32> C -0.050287839275596546 -3.0050459023760467 -5.55119140624091
| 33> H 1.0953501350369863 -3.339866028839763 -3.738393351530517
| 34> H 2.0564524485684403 -3.3466419763984105 -5.223548680523807
| 35> H -0.26262427349637835 -4.089686375164958 -5.631627157276448
| 36> H 0.12739055871209226 -2.6373457725232763 -6.574154650028673
| 37> H -2.1482385820581413 -2.5043114896480336 -5.640968763420222
| 38> H -1.554254406831007 -2.79531581916847 -4.001456960166247
| 39> C -0.7943781449745684 -0.9315167129635743 6.181489601716022
| 40> H 1.3243444244285698 -1.3310739253952935 6.253733834015622
| 41> H 0.5602887914508443 -1.8253169911736344 4.739202254209497
| 42> H -0.7400067025111874 -0.22203593833613275 7.020160029987758
| 43> H -1.031187209269401 -1.9222160414832927 6.6137025439741
| 44> H -2.082142443219509 -1.3108397202320512 4.475388346295197
| 45> H -2.8807004795744686 -0.5076740437983212 5.832157734136645
| 46> *
| 47>
| 48> % eprnmr
| 49> gtensor true
| 50> Nuclei = all H {aiso,adip,aorb,fgrad,rho}
| 51> Nuclei = all V {aiso,adip,aorb,fgrad,rho}
| 52> end
| 53>
| 54>                          ****END OF INPUT****

CARTESIAN COORDINATES (ANGSTROEM)
---------------------------------
  V      0.234790    1.079313   -0.183408
  S      1.593109    0.307841    1.726780
  S      1.796708   -0.268659   -1.504060
  S     -1.656260    0.942840    1.403599
  S     -1.441173    0.393781   -1.840371
  O      0.566143    2.623209   -0.410582
  C      0.935137   -0.353345   -3.077939
  C     -0.397103   -0.079883   -3.217384
  C      0.536111    0.724165    3.111766
  C     -0.799475    0.983701    2.977558
  S      1.916132   -1.146723   -4.396687
  S     -1.341483   -0.487168   -4.731707
  S     -1.927979    1.110209    4.407436
  S      1.337060    0.473430    4.737616
  C     -1.300241   -2.339025   -4.964649
  C     -1.950859   -0.550133    5.252022
  C      1.222095   -2.850506   -4.710977
  C      0.575870   -1.043739    5.505630
  C     -0.050030   -3.003918   -5.551455
  H      1.095607   -3.338738   -3.738657
  H      2.056710   -3.345514   -5.223812
  H     -0.262367   -4.088558   -5.631891
  H      0.127648   -2.636218   -6.574418
  H     -2.147981   -2.503183   -5.641232
  H     -1.553997   -2.794188   -4.001720
  C     -0.794121   -0.930388    6.181226
  H      1.324602   -1.329946    6.253470
  H      0.560546   -1.824189    4.738939
  H     -0.739749   -0.220908    7.019897
  H     -1.030930   -1.921088    6.613439
  H     -2.081885   -1.309711    4.475125
  H     -2.880443   -0.506546    5.831894

 Total Charge           Charge          ....   -2
 Multiplicity           Mult            ....    2
 Number of Electrons    NEL             ....  233
 Basis Dimension        Dim             ....  517

ORBITAL ENERGIES
----------------
                 SPIN UP ORBITALS
  NO   OCC          E(Eh)            E(eV)
   0   1.0000    -196.642173     -5350.9056
   1   1.0000     -88.679418     -2413.0896
   2   1.0000     -88.678616     -2413.0678
   3   1.0000     -88.678355     -2413.0607
   4   1.0000     -88.677932     -2413.0492
   5   1.0000     -88.616191     -2411.3691
   6   1.0000     -88.615750     -2411.3571
   7   1.0000     -88.614914     -2411.3344
   8   1.0000     -88.614743     -2411.3298
   9   1.0000     -22.017780      -599.1343
  10   1.0000     -18.859390      -513.1901
  11   1.0000     -18.524693      -504.0825
  12   1.0000     -18.518794      -503.9220
  13   1.0000     -18.518751      -503.9208
  14   1.0000     -10.020246      -272.6648
  15   1.0000     -10.020108      -272.6610
  16   1.0000     -10.018842      -272.6266
  17   1.0000     -10.018718      -272.6232
  18   1.0000     -10.011226      -272.4193
  19   1.0000     -10.009556      -272.3739
  20   1.0000      -9.999314      -272.0952
  21   1.0000      -9.998517      -272.0735
  22   1.0000      -9.997969      -272.0586
  23   1.0000      -9.997262      -272.0393
  24   1.0000      -7.732140      -210.4022
  25   1.0000      -7.731453      -210.3835
  26   1.0000      -7.731158      -210.3755
  27   1.0000      -7.730810      -210.3660
  28   1.0000      -7.669941      -208.7097
  29   1.0000      -7.669602      -208.7005
  30   1.0000      -7.668569      -208.6724
  31   1.0000      -7.668477      -208.6699
  32   1.0000      -5.697570      -155.0388
  33   1.0000      -5.696888      -155.0202
  34   1.0000      -5.696560      -155.0113
  35   1.0000      -5.696213      -155.0018
  36   1.0000      -5.693392      -154.9251
  37   1.0000      -5.692671      -154.9054
  38   1.0000      -5.692434      -154.8990
  39   1.0000      -5.692066      -154.8890
  40   1.0000      -5.686941      -154.7495
  41   1.0000      -5.686260      -154.7310
  42   1.0000      -5.685962      -154.7229
  43   1.0000      -5.685615      -154.7135
  44   1.0000      -5.635015      -153.3366
  45   1.0000      -5.634640      -153.3263
  46   1.0000      -5.633622      -153.2986
  47   1.0000      -5.633518      -153.2958
  48   1.0000      -5.628415      -153.1569
  49   1.0000      -5.628054      -153.1471
  50   1.0000      -5.627761      -153.1392
  51   1.0000      -5.627448      -153.1306
  52   1.0000      -5.627089      -153.1209
  53   1.0000      -5.626996      -153.1183
  54   1.0000      -5.626412      -153.1025
  55   1.0000      -5.626313      -153.0998
  56   1.0000      -2.411502       -65.6203
  57   1.0000      -1.453046       -39.5394
  58   1.0000      -1.440833       -39.2071
  59   1.0000      -1.440416       -39.1957
  60   1.0000      -0.639179       -17.3929
  61   1.0000      -0.639038       -17.3891
  62   1.0000      -0.620206       -16.8767
  63   1.0000      -0.591796       -16.1036
  64   1.0000      -0.590502       -16.0684
  65   1.0000      -0.571301       -15.5459
  66   1.0000      -0.571254       -15.5446
  67   1.0000      -0.490452       -13.3459
  68   1.0000      -0.488365       -13.2891
  69   1.0000      -0.486827       -13.2472
  70   1.0000      -0.485126       -13.2009
  71   1.0000      -0.423865       -11.5340
  72   1.0000      -0.420160       -11.4331
  73   1.0000      -0.414015       -11.2659
  74   1.0000      -0.407629       -11.0921
  75   1.0000      -0.375311       -10.2127
  76   1.0000      -0.372098       -10.1253
  77   1.0000      -0.296981        -8.0813
  78   1.0000      -0.295730        -8.0472
  79   1.0000      -0.275213        -7.4889
  80   1.0000      -0.274924        -7.4811
  81   1.0000      -0.261533        -7.1167
  82   1.0000      -0.254949        -6.9375
  83   1.0000      -0.243828        -6.6349
  84   1.0000      -0.242076        -6.5872
  85   1.0000      -0.196247        -5.3402
  86   1.0000      -0.193006        -5.2520
  87   1.0000      -0.191423        -5.2089
  88   1.0000      -0.189441        -5.1549
  89   1.0000      -0.185774        -5.0552
  90   1.0000      -0.184917        -5.0318
  91   1.0000      -0.180011        -4.8983
  92   1.0000      -0.148361        -4.0371
  93   1.0000      -0.148189        -4.0324
  94   1.0000      -0.141280        -3.8444
  95   1.0000      -0.140302        -3.8178
  96   1.0000      -0.139367        -3.7924
  97   1.0000      -0.098643        -2.6842
  98   1.0000      -0.092877        -2.5273
  99   1.0000      -0.089637        -2.4391
 100   1.0000      -0.081590        -2.2202
 101   1.0000      -0.081256        -2.2111
 102   1.0000      -0.076430        -2.0798
 103   1.0000      -0.069004        -1.8777
 104   1.0000      -0.053061        -1.4439
 105   1.0000      -0.043000        -1.1701
 106   1.0000      -0.040289        -1.0963
 107   1.0000      -0.036456        -0.9920
 108   1.0000      -0.034239        -0.9317
 109   1.0000      -0.009997        -0.2720
 110   1.0000      -0.004240        -0.1154
 111   1.0000      -0.003583        -0.0975
 112   1.0000       0.005292         0.1440
 113   1.0000       0.006482         0.1764
 114   1.0000       0.013883         0.3778
 115   1.0000       0.031028         0.8443
 116   1.0000       0.055874         1.5204
 117   0.0000       0.179562         4.8861
 118   0.0000       0.190476         5.1831
 119   0.0000       0.192808         5.2466
 120   0.0000       0.193836         5.2745
 121   0.0000       0.209664         5.7052

                 SPIN DOWN ORBITALS
  NO   OCC          E(Eh)            E(eV)
   0   1.0000    -196.642319     -5350.9095
   1   1.0000     -88.679429     -2413.0899
   2   1.0000     -88.678626     -2413.0681
   3   1.0000     -88.678367     -2413.0611
   4   1.0000     -88.677944     -2413.0495
   5   1.0000     -88.616356     -2411.3736
   6   1.0000     -88.615913     -2411.3616
   7   1.0000     -88.615078     -2411.3389
   8   1.0000     -88.614907     -2411.3342
   9   1.0000     -22.002989      -598.7318
  10   1.0000     -18.863017      -513.2888
  11   1.0000     -18.519526      -503.9419
  12   1.0000     -18.502862      -503.4885
  13   1.0000     -18.502787      -503.4864
  14   1.0000     -10.020241      -272.6646
  15   1.0000     -10.020102      -272.6608
  16   1.0000     -10.018837      -272.6264
  17   1.0000     -10.018713      -272.6230
  18   1.0000     -10.011226      -272.4193
  19   1.0000     -10.009556      -272.3739
  20   1.0000      -9.999043      -272.0878
  21   1.0000      -9.998244      -272.0660
  22   1.0000      -9.997718      -272.0517
  23   1.0000      -9.997015      -272.0326
  24   1.0000      -7.732151      -210.4025
  25   1.0000      -7.731463      -210.3838
  26   1.0000      -7.731171      -210.3758
  27   1.0000      -7.730823      -210.3664
  28   1.0000      -7.670094      -208.7139
  29   1.0000      -7.669754      -208.7046
  30   1.0000      -7.668722      -208.6765
  31   1.0000      -7.668629      -208.6740
  32   1.0000      -5.697584      -155.0391
  33   1.0000      -5.696900      -155.0205
  34   1.0000      -5.696575      -155.0117
  35   1.0000      -5.696228      -155.0022
  36   1.0000      -5.693408      -154.9255
  37   1.0000      -5.692686      -154.9059
  38   1.0000      -5.692452      -154.8995
  39   1.0000      -5.692083      -154.8895
  40   1.0000      -5.686955      -154.7499
  41   1.0000      -5.686272      -154.7313
  42   1.0000      -5.685978      -154.7233
  43   1.0000      -5.685631      -154.7139
  44   1.0000      -5.635188      -153.3413
  45   1.0000      -5.634811      -153.3310
  46   1.0000      -5.633790      -153.3032
  47   1.0000      -5.633686      -153.3004
  48   1.0000      -5.628827      -153.1682
  49   1.0000      -5.628465      -153.1583
  50   1.0000      -5.627895      -153.1428
  51   1.0000      -5.627580      -153.1342
  52   1.0000      -5.627506      -153.1322
  53   1.0000      -5.627410      -153.1296
  54   1.0000      -5.626543      -153.1060
  55   1.0000      -5.626443      -153.1033
  56   1.0000      -2.366989       -64.4091
  57   1.0000      -1.434109       -39.0241
  58   1.0000      -1.379310       -37.5329
  59   1.0000      -1.378592       -37.5134
  60   1.0000      -0.639138       -17.3918
  61   1.0000      -0.639001       -17.3881
  62   1.0000      -0.627971       -17.0880
  63   1.0000      -0.591573       -16.0975
  64   1.0000      -0.590300       -16.0629
  65   1.0000      -0.571292       -15.5456
  66   1.0000      -0.571237       -15.5441
  67   1.0000      -0.490458       -13.3460
  68   1.0000      -0.488389       -13.2897
  69   1.0000      -0.486823       -13.2471
  70   1.0000      -0.485150       -13.2016
  71   1.0000      -0.424132       -11.5412
  72   1.0000      -0.420498       -11.4423
  73   1.0000      -0.414073       -11.2675
  74   1.0000      -0.407772       -11.0960
  75   1.0000      -0.375289       -10.2121
  76   1.0000      -0.372152       -10.1268
  77   1.0000      -0.296959        -8.0807
  78   1.0000      -0.295714        -8.0468
  79   1.0000      -0.275187        -7.4882
  80   1.0000      -0.274908        -7.4806
  81   1.0000      -0.261291        -7.1101
  82   1.0000      -0.254890        -6.9359
  83   1.0000      -0.243777        -6.6335
  84   1.0000      -0.242025        -6.5858
  85   1.0000      -0.195877        -5.3301
  86   1.0000      -0.192912        -5.2494
  87   1.0000      -0.191343        -5.2067
  88   1.0000      -0.189400        -5.1538
  89   1.0000      -0.185729        -5.0539
  90   1.0000      -0.184878        -5.0308
  91   1.0000      -0.177852        -4.8396
  92   1.0000      -0.147993        -4.0271
  93   1.0000      -0.147615        -4.0168
  94   1.0000      -0.140917        -3.8346
  95   1.0000      -0.140099        -3.8123
  96   1.0000      -0.139286        -3.7902
  97   1.0000      -0.097240        -2.6460
  98   1.0000      -0.092400        -2.5143
  99   1.0000      -0.089876        -2.4456
 100   1.0000      -0.083406        -2.2696
 101   1.0000      -0.081708        -2.2234
 102   1.0000      -0.076112        -2.0711
 103   1.0000      -0.070339        -1.9140
 104   1.0000      -0.049268        -1.3406
 105   1.0000      -0.042107        -1.1458
 106   1.0000      -0.040461        -1.1010
 107   1.0000      -0.036383        -0.9900
 108   1.0000      -0.033133        -0.9016
 109   1.0000      -0.009037        -0.2459
 110   1.0000      -0.004893        -0.1331
 111   1.0000      -0.002727        -0.0742
 112   1.0000       0.005653         0.1538
 113   1.0000       0.007229         0.1967
 114   1.0000       0.030567         0.8318
 115   1.0000       0.055107         1.4995
 116   0.0000       0.180631         4.9152
 117   0.0000       0.184946         5.0326
 118   0.0000       0.190645         5.1877
 119   0.0000       0.193074         5.2538
 120   0.0000       0.194113         5.2821

MULLIKEN ATOMIC CHARGES AND SPIN POPULATIONS
--------------------------------------------
   0 V :    0.481444    1.205182
   1 S :   -0.263633   -0.026183
   2 S :   -0.259131   -0.026627
   3 S :   -0.264938   -0.026289
   4 S :   -0.259343   -0.026386
   5 O :   -0.505180   -0.140340
   6 C :   -0.115479    0.010471
   7 C :   -0.111739    0.010162
   8 C :   -0.111437    0.009531
   9 C :   -0.114771    0.009295
  10 S :   -0.053777    0.000102
  11 S :   -0.052986   -0.000031
  12 S :   -0.052882   -0.000187
  13 S :   -0.053343   -0.000209
  14 C :   -0.323561    0.000337
  15 C :   -0.324116    0.000314
  16 C :   -0.321564    0.000348
  17 C :   -0.325205    0.000326
  18 C :   -0.080189    0.000146
  19 H :    0.137603   -0.000079
  20 H :    0.097874    0.000031
  21 H :    0.050280    0.000078
  22 H :    0.072482   -0.000004
  23 H :    0.098066    0.000031
  24 H :    0.138459   -0.000083
  25 C :   -0.079837    0.000150
  26 H :    0.098308    0.000033
  27 H :    0.139575   -0.000094
  28 H :    0.072930   -0.000015
  29 H :    0.049033    0.000050
  30 H :    0.138978   -0.000092
  31 H :    0.098077    0.000031
Sum of atomic charges         :   -2.0000000

LOEWDIN ATOMIC CHARGES AND SPIN POPULATIONS
-------------------------------------------
   0 V :   -0.222043    1.158926
   1 S :    0.071824   -0.017937
   2 S :    0.076515   -0.017887
   3 S :    0.069492   -0.018104
   4 S :    0.076762   -0.017785
   5 O :   -0.346070   -0.125842
   6 C :   -0.535815    0.010808
   7 C :   -0.533824    0.010554
   8 C :   -0.534985    0.009916
   9 C :   -0.536261    0.009710
  10 S :    0.323518   -0.000668
  11 S :    0.321925   -0.000777
  12 S :    0.323794   -0.000929
  13 S :    0.322637   -0.000948
  14 C :   -0.294627    0.000251
  15 C :   -0.294833    0.000217
  16 C :   -0.294958    0.000259
  17 C :   -0.294778    0.000224
  18 C :   -0.179481   -0.000037
  19 H :    0.063110   -0.000016
  20 H :    0.050034    0.000026
  21 H :    0.051392    0.000047
  22 H :    0.053521    0.000006
  23 H :    0.049917    0.000026
  24 H :    0.063407   -0.000019
  25 C :   -0.180064   -0.000047
  26 H :    0.049404    0.000022
  27 H :    0.063623   -0.000026
  28 H :    0.053394    0.000002
  29 H :    0.050542    0.000032
  30 H :    0.063514   -0.000026
  31 H :    0.049413    0.000021

  Mayer bond orders larger than 0.100000
B(  0-V ,  1-S ) :   0.7715 B(  0-V ,  2-S ) :   0.7832 B(  0-V ,  3-S ) :   0.7695
B(  0-V ,  4-S ) :   0.7785 B(  0-V ,  5-O ) :   2.1141 B(  1-S ,  8-C ) :   1.1193
B(  2-S ,  6-C ) :   1.1157 B(  3-S ,  9-C ) :   1.1207 B(  4-S ,  7-C ) :   1.1196
B(  6-C ,  7-C ) :   1.5710 B(  6-C , 10-S ) :   0.9703 B(  7-C , 11-S ) :   0.9673
B(  8-C ,  9-C ) :   1.5681 B(  8-C , 13-S ) :   0.9639 B(  9-C , 12-S ) :   0.9662
B( 10-S , 16-C ) :   1.0102 B( 11-S , 14-C ) :   1.0127 B( 12-S , 15-C ) :   1.0114
B( 13-S , 17-C ) :   1.0124 B( 14-C , 18-C ) :   0.8865 B( 14-C , 23-H ) :   0.9720
B( 14-C , 24-H ) :   0.9711 B( 15-C , 25-C ) :   0.8857 B( 15-C , 30-H ) :   0.9715
B( 15-C , 31-H ) :   0.9720 B( 16-C , 18-C ) :   0.8866 B( 16-C , 19-H ) :   0.9709
B( 16-C , 20-H ) :   0.9721 B( 17-C , 25-C ) :   0.8855 B( 17-C , 26-H ) :   0.9718
B( 17-C , 27-H ) :   0.9716 B( 18-C , 21-H ) :   0.9586 B( 18-C , 22-H ) :   0.9719
B( 25-C , 28-H ) :   0.9721 B( 25-C , 29-H ) :   0.9579

FINAL SINGLE POINT ENERGY     -4592.711135014493

DIPOLE MOMENT
-------------
                                X             Y             Z
Electronic contribution:      5.61669      26.12802      -4.26511
Nuclear contribution   :     -6.27540     -29.21240       4.71389
                        -----------------------------------------
Total Dipole Moment    :     -0.65871      -3.08439       0.44878
                        -----------------------------------------
Magnitude (a.u.)       :      3.18571
Magnitude (Debye)      :      8.09743

Rotational constants in cm-1:     0.012439     0.002536     0.002417
Rotational constants in MHz :   372.925656    76.014451    72.448540

                             ****ORCA TERMINATED NORMALLY****
TOTAL RUN TIME: 0 days 0 hours 27 minutes 30 seconds 669 msec
