                         Program Version 5.0.4 -  RELEASE  -
|  1> ! nofrozencore ReducedPop printbasis
|  2> ! B3LYP TZVP
|  3>
|  4> %basis
|  5> newgto V "CP(PPP)" end
|  6> end
|  7>
|  8> %pal
|  9> nprocs 8
| 10> end
| 11>
| 12> % sym SymThresh 1e-2 end
| 13> * xyz -2 2
| 14> V 0.2084725443080088 -0.6315245559326668 0.9058126052742882
| 15> S 0.8094642009078926 1.6837580639698664 1.4490645777176372
| 16> S -2.117259883881737 0.1344856913521585 1.0279265811217393
| 17> S 2.2507790804360313 -0.5410345595076606 -0.4475241077974299
| 18> S -0.6717523421995103 -2.1091099232442385 -0.84413587910191
| 19> O 0.500871682464467 -1.5054418523292017 2.1677827787531747
| 20> C -3.0263664351352757 -1.1112769344589568 0.16350795200266968
| 21> C -2.4236916474111 -2.04546056778965 -0.6178699757427235
| 22> C 2.4994863856457012 1.8103858930008765 0.9538450341665606
| 23> C 3.101663710530217 0.8814654195894307 0.1619517895268656
| 24> S -4.816546642630345 -1.0265240572527525 0.37686730678276614
| 25> S -3.350620386735293 -3.2972296800692926 -1.5299063817279765
| 26> S 4.804213638976078 1.0367280227876419 -0.39304075892591195
| 27> S 3.3446409157593453 3.289477993690618 1.528411072684844
| 28> C -4.260640674708814 -2.298874042035707 -2.789864745257956
| 29> C 4.817017227050948 2.5209033568545363 -1.4875704452468592
| 30> C -5.408514764593203 -0.5248110285834088 -1.2992137494290752
| 31> C 3.685627712136844 4.268969861479031 0.003679876716001106
| 32> C -5.568063438588489 -1.6546426101390672 -2.3203637014511984
| 33> H -4.735745484448487 0.25002722876573197 -1.673342792433903
| 34> H -6.383007749933604 -0.06173831076299667 -1.1143729285215433
| 35> H -6.0673523726611736 -1.2321602141734667 -3.207627765177848
| 36> H -6.232883546985363 -2.424982239253827 -1.9154449315633315
| 37> H -4.474263591041239 -3.009054318728336 -3.594994684303456
| 38> H -3.5716358198003864 -1.5471656308731885 -3.181271696512197
| 39> C 4.766760924067927 3.858280709900673 -0.8935722985967312
| 40> H 3.7286076321144326 5.366965687591034 0.16440112824278788
| 41> H 2.6837565451109544 4.012944595002244 -0.42718260709254907
| 42> H 5.60040672207667 3.76828939405448 -0.15576276357320237
| 43> H 5.088025541569799 4.668934828883548 -1.599394930202204
| 44> H 3.829584881330737 2.2408818943470066 -1.9366594014611376
| 45> H 5.586867504460498 2.494842039820187 -2.287563699366463
| 46> *
| 47>
| 48> % eprnmr
| 49> gtensor true
| 50> Nuclei = all H {aiso,adip,aorb,fgrad,rho}
| 51> Nuclei = all V {aiso,adip,aorb,fgrad,rho}
| 52> end
| 53>
| 54>                          ****END OF INPUT****

CARTESIAN COORDINATES (ANGSTROEM)
---------------------------------
  V      0.208618   -0.632224    0.906761
  S      0.809610    1.683059    1.450013
  S     -2.117114    0.133787    1.028875
  S      2.250924   -0.541734   -0.446576
  S     -0.671607   -2.109809   -0.843188
  O      0.501017   -1.506141    2.168731
  C     -3.026221   -1.111976    0.164456
  C     -2.423546   -2.046160   -0.616922
  C      2.499632    1.809687    0.954793
  C      3.101809    0.880766    0.162900
  S     -4.816401   -1.027223    0.377815
  S     -3.350475   -3.297929   -1.528958
  S      4.804359    1.036029   -0.392093
  S      3.344786    3.288779    1.529359
  C     -4.260495   -2.299573   -2.788917
  C      4.817163    2.520204   -1.486622
  C     -5.408369   -0.525510   -1.298266
  C      3.685773    4.268271    0.004628
  C     -5.567918   -1.655342   -2.319416
  H     -4.735600    0.249328   -1.672395
  H     -6.382862   -0.062437   -1.113425
  H     -6.067207   -1.232859   -3.206680
  H     -6.232738   -2.425681   -1.914497
  H     -4.474118   -3.009753   -3.594047
  H     -3.571490   -1.547865   -3.180324
  C      4.766906    3.857582   -0.892624
  H      3.728753    5.366267    0.165349
  H      2.683902    4.012246   -0.426235
  H      5.600552    3.767590   -0.154815
  H      5.088171    4.668236   -1.598447
  H      3.829730    2.240183   -1.935711
  H      5.587013    2.494143   -2.286616

 Total Charge           Charge          ....   -2
 Multiplicity           Mult            ....    2
 Number of Electrons    NEL             ....  233
 Basis Dimension        Dim             ....  517

ORBITAL ENERGIES
----------------
                 SPIN UP ORBITALS
  NO   OCC          E(Eh)            E(eV)
   0   1.0000    -196.638490     -5350.8053
   1   1.0000     -88.677094     -2413.0264
   2   1.0000     -88.677048     -2413.0252
   3   1.0000     -88.676811     -2413.0187
   4   1.0000     -88.676782     -2413.0179
   5   1.0000     -88.613916     -2411.3072
   6   1.0000     -88.613847     -2411.3054
   7   1.0000     -88.612326     -2411.2640
   8   1.0000     -88.612320     -2411.2638
   9   1.0000     -22.014378      -599.0417
  10   1.0000     -18.863779      -513.3095
  11   1.0000     -18.521221      -503.9881
  12   1.0000     -18.515403      -503.8297
  13   1.0000     -18.515345      -503.8281
  14   1.0000     -10.016134      -272.5529
  15   1.0000     -10.016117      -272.5524
  16   1.0000     -10.013699      -272.4866
  17   1.0000     -10.013691      -272.4864
  18   1.0000     -10.005497      -272.2634
  19   1.0000      -9.999167      -272.0912
  20   1.0000      -9.994369      -271.9606
  21   1.0000      -9.993663      -271.9414
  22   1.0000      -9.992299      -271.9043
  23   1.0000      -9.991575      -271.8846
  24   1.0000      -7.730725      -210.3637
  25   1.0000      -7.730678      -210.3624
  26   1.0000      -7.730569      -210.3595
  27   1.0000      -7.730548      -210.3589
  28   1.0000      -7.668385      -208.6674
  29   1.0000      -7.668327      -208.6658
  30   1.0000      -7.666778      -208.6236
  31   1.0000      -7.666763      -208.6232
  32   1.0000      -5.695970      -154.9952
  33   1.0000      -5.695926      -154.9940
  34   1.0000      -5.695791      -154.9904
  35   1.0000      -5.695765      -154.9896
  36   1.0000      -5.692079      -154.8893
  37   1.0000      -5.692036      -154.8882
  38   1.0000      -5.691871      -154.8837
  39   1.0000      -5.691854      -154.8832
  40   1.0000      -5.685475      -154.7096
  41   1.0000      -5.685424      -154.7083
  42   1.0000      -5.685308      -154.7051
  43   1.0000      -5.685292      -154.7047
  44   1.0000      -5.633245      -153.2884
  45   1.0000      -5.633187      -153.2868
  46   1.0000      -5.631623      -153.2442
  47   1.0000      -5.631612      -153.2439
  48   1.0000      -5.626803      -153.1131
  49   1.0000      -5.626746      -153.1115
  50   1.0000      -5.626354      -153.1009
  51   1.0000      -5.626293      -153.0992
  52   1.0000      -5.625237      -153.0705
  53   1.0000      -5.625226      -153.0702
  54   1.0000      -5.624740      -153.0570
  55   1.0000      -5.624736      -153.0569
  56   1.0000      -2.410081       -65.5817
  57   1.0000      -1.455428       -39.6042
  58   1.0000      -1.439194       -39.1625
  59   1.0000      -1.438139       -39.1337
  60   1.0000      -0.654948       -17.8220
  61   1.0000      -0.643747       -17.5173
  62   1.0000      -0.626219       -17.0403
  63   1.0000      -0.600087       -16.3292
  64   1.0000      -0.593911       -16.1611
  65   1.0000      -0.580015       -15.7830
  66   1.0000      -0.576048       -15.6751
  67   1.0000      -0.494282       -13.4501
  68   1.0000      -0.490739       -13.3537
  69   1.0000      -0.490433       -13.3454
  70   1.0000      -0.487240       -13.2585
  71   1.0000      -0.425259       -11.5719
  72   1.0000      -0.421403       -11.4670
  73   1.0000      -0.412297       -11.2192
  74   1.0000      -0.406057       -11.0494
  75   1.0000      -0.375677       -10.2227
  76   1.0000      -0.368701       -10.0329
  77   1.0000      -0.297933        -8.1072
  78   1.0000      -0.293434        -7.9847
  79   1.0000      -0.280712        -7.6386
  80   1.0000      -0.277263        -7.5447
  81   1.0000      -0.263555        -7.1717
  82   1.0000      -0.257860        -7.0167
  83   1.0000      -0.246146        -6.6980
  84   1.0000      -0.239940        -6.5291
  85   1.0000      -0.203942        -5.5495
  86   1.0000      -0.198397        -5.3987
  87   1.0000      -0.194705        -5.2982
  88   1.0000      -0.191928        -5.2226
  89   1.0000      -0.185395        -5.0449
  90   1.0000      -0.184107        -5.0098
  91   1.0000      -0.174465        -4.7474
  92   1.0000      -0.152417        -4.1475
  93   1.0000      -0.149029        -4.0553
  94   1.0000      -0.144098        -3.9211
  95   1.0000      -0.136067        -3.7026
  96   1.0000      -0.120541        -3.2801
  97   1.0000      -0.105170        -2.8618
  98   1.0000      -0.095606        -2.6016
  99   1.0000      -0.095246        -2.5918
 100   1.0000      -0.091307        -2.4846
 101   1.0000      -0.084228        -2.2920
 102   1.0000      -0.081248        -2.2109
 103   1.0000      -0.075702        -2.0600
 104   1.0000      -0.051196        -1.3931
 105   1.0000      -0.039508        -1.0751
 106   1.0000      -0.038951        -1.0599
 107   1.0000      -0.034959        -0.9513
 108   1.0000      -0.033311        -0.9064
 109   1.0000      -0.013879        -0.3777
 110   1.0000      -0.006111        -0.1663
 111   1.0000      -0.003342        -0.0909
 112   1.0000       0.004786         0.1302
 113   1.0000       0.009868         0.2685
 114   1.0000       0.016009         0.4356
 115   1.0000       0.032687         0.8895
 116   1.0000       0.058268         1.5856
 117   0.0000       0.186133         5.0649
 118   0.0000       0.194735         5.2990
 119   0.0000       0.194759         5.2997
 120   0.0000       0.196155         5.3377
 121   0.0000       0.214217         5.8291

                 SPIN DOWN ORBITALS
  NO   OCC          E(Eh)            E(eV)
   0   1.0000    -196.638637     -5350.8093
   1   1.0000     -88.677107     -2413.0267
   2   1.0000     -88.677061     -2413.0255
   3   1.0000     -88.676823     -2413.0190
   4   1.0000     -88.676795     -2413.0183
   5   1.0000     -88.614066     -2411.3113
   6   1.0000     -88.613998     -2411.3095
   7   1.0000     -88.612479     -2411.2682
   8   1.0000     -88.612473     -2411.2680
   9   1.0000     -21.999947      -598.6490
  10   1.0000     -18.867051      -513.3986
  11   1.0000     -18.516325      -503.8548
  12   1.0000     -18.500054      -503.4121
  13   1.0000     -18.499435      -503.3952
  14   1.0000     -10.016130      -272.5528
  15   1.0000     -10.016114      -272.5523
  16   1.0000     -10.013696      -272.4865
  17   1.0000     -10.013688      -272.4863
  18   1.0000     -10.005497      -272.2634
  19   1.0000      -9.999167      -272.0912
  20   1.0000      -9.994117      -271.9537
  21   1.0000      -9.993412      -271.9346
  22   1.0000      -9.992046      -271.8974
  23   1.0000      -9.991323      -271.8777
  24   1.0000      -7.730738      -210.3641
  25   1.0000      -7.730692      -210.3628
  26   1.0000      -7.730583      -210.3599
  27   1.0000      -7.730562      -210.3593
  28   1.0000      -7.668524      -208.6711
  29   1.0000      -7.668467      -208.6696
  30   1.0000      -7.666921      -208.6275
  31   1.0000      -7.666906      -208.6271
  32   1.0000      -5.695987      -154.9957
  33   1.0000      -5.695942      -154.9945
  34   1.0000      -5.695806      -154.9908
  35   1.0000      -5.695780      -154.9901
  36   1.0000      -5.692099      -154.8899
  37   1.0000      -5.692056      -154.8887
  38   1.0000      -5.691891      -154.8842
  39   1.0000      -5.691874      -154.8838
  40   1.0000      -5.685491      -154.7101
  41   1.0000      -5.685440      -154.7087
  42   1.0000      -5.685324      -154.7055
  43   1.0000      -5.685308      -154.7051
  44   1.0000      -5.633409      -153.2929
  45   1.0000      -5.633351      -153.2913
  46   1.0000      -5.631790      -153.2488
  47   1.0000      -5.631779      -153.2485
  48   1.0000      -5.627171      -153.1231
  49   1.0000      -5.627113      -153.1215
  50   1.0000      -5.626479      -153.1043
  51   1.0000      -5.626419      -153.1026
  52   1.0000      -5.625614      -153.0807
  53   1.0000      -5.625603      -153.0804
  54   1.0000      -5.624869      -153.0605
  55   1.0000      -5.624865      -153.0604
  56   1.0000      -2.366667       -64.4003
  57   1.0000      -1.437589       -39.1188
  58   1.0000      -1.378405       -37.5083
  59   1.0000      -1.377893       -37.4944
  60   1.0000      -0.654913       -17.8211
  61   1.0000      -0.643699       -17.5159
  62   1.0000      -0.632796       -17.2193
  63   1.0000      -0.599874       -16.3234
  64   1.0000      -0.593706       -16.1556
  65   1.0000      -0.580009       -15.7828
  66   1.0000      -0.576042       -15.6749
  67   1.0000      -0.494297       -13.4505
  68   1.0000      -0.490766       -13.3544
  69   1.0000      -0.490421       -13.3450
  70   1.0000      -0.487245       -13.2586
  71   1.0000      -0.425487       -11.5781
  72   1.0000      -0.421689       -11.4747
  73   1.0000      -0.412294       -11.2191
  74   1.0000      -0.406136       -11.0515
  75   1.0000      -0.375651       -10.2220
  76   1.0000      -0.368686       -10.0325
  77   1.0000      -0.297927        -8.1070
  78   1.0000      -0.293415        -7.9842
  79   1.0000      -0.280683        -7.6378
  80   1.0000      -0.277244        -7.5442
  81   1.0000      -0.263348        -7.1661
  82   1.0000      -0.257805        -7.0152
  83   1.0000      -0.246078        -6.6961
  84   1.0000      -0.239852        -6.5267
  85   1.0000      -0.203926        -5.5491
  86   1.0000      -0.198163        -5.3923
  87   1.0000      -0.194472        -5.2918
  88   1.0000      -0.191892        -5.2216
  89   1.0000      -0.184906        -5.0316
  90   1.0000      -0.182808        -4.9745
  91   1.0000      -0.173945        -4.7333
  92   1.0000      -0.151729        -4.1287
  93   1.0000      -0.148727        -4.0471
  94   1.0000      -0.143887        -3.9154
  95   1.0000      -0.135726        -3.6933
  96   1.0000      -0.120179        -3.2702
  97   1.0000      -0.103395        -2.8135
  98   1.0000      -0.095668        -2.6033
  99   1.0000      -0.095310        -2.5935
 100   1.0000      -0.092565        -2.5188
 101   1.0000      -0.084039        -2.2868
 102   1.0000      -0.080865        -2.2004
 103   1.0000      -0.076319        -2.0768
 104   1.0000      -0.047015        -1.2793
 105   1.0000      -0.038994        -1.0611
 106   1.0000      -0.038713        -1.0534
 107   1.0000      -0.034062        -0.9269
 108   1.0000      -0.033271        -0.9053
 109   1.0000      -0.012917        -0.3515
 110   1.0000      -0.007052        -0.1919
 111   1.0000      -0.002427        -0.0660
 112   1.0000       0.005647         0.1537
 113   1.0000       0.010772         0.2931
 114   1.0000       0.032901         0.8953
 115   1.0000       0.057601         1.5674
 116   0.0000       0.184324         5.0157
 117   0.0000       0.187074         5.0905
 118   0.0000       0.194813         5.3011
 119   0.0000       0.195201         5.3117
 120   0.0000       0.196311         5.3419

MULLIKEN ATOMIC CHARGES AND SPIN POPULATIONS
--------------------------------------------
   0 V :    0.456477    1.182172
   1 S :   -0.254017   -0.022472
   2 S :   -0.257273   -0.023153
   3 S :   -0.254228   -0.022418
   4 S :   -0.257520   -0.023075
   5 O :   -0.491736   -0.126720
   6 C :   -0.116815    0.008781
   7 C :   -0.115896    0.008782
   8 C :   -0.121717    0.008782
   9 C :   -0.122652    0.008718
  10 S :   -0.045146   -0.000143
  11 S :   -0.044864   -0.000179
  12 S :   -0.036448   -0.000137
  13 S :   -0.036832   -0.000169
  14 C :   -0.337508    0.000302
  15 C :   -0.381993    0.000229
  16 C :   -0.336238    0.000285
  17 C :   -0.381435    0.000250
  18 C :   -0.086057    0.000126
  19 H :    0.146751   -0.000105
  20 H :    0.101575    0.000024
  21 H :    0.044522    0.000037
  22 H :    0.079352    0.000019
  23 H :    0.101714    0.000025
  24 H :    0.147071   -0.000106
  25 C :   -0.018001    0.000232
  26 H :    0.105415    0.000035
  27 H :    0.146962   -0.000114
  28 H :    0.058645   -0.000049
  29 H :    0.055126    0.000121
  30 H :    0.147423   -0.000111
  31 H :    0.105343    0.000032
Sum of atomic charges         :   -2.0000000

LOEWDIN ATOMIC CHARGES AND SPIN POPULATIONS
-------------------------------------------
   0 V :   -0.249486    1.137359
   1 S :    0.090151   -0.014997
   2 S :    0.084845   -0.015540
   3 S :    0.089906   -0.014945
   4 S :    0.084611   -0.015514
   5 O :   -0.322398   -0.112493
   6 C :   -0.553226    0.009942
   7 C :   -0.552709    0.009898
   8 C :   -0.559360    0.009847
   9 C :   -0.559810    0.009868
  10 S :    0.336504   -0.000991
  11 S :    0.336350   -0.001011
  12 S :    0.342731   -0.000958
  13 S :    0.342564   -0.000974
  14 C :   -0.293288    0.000162
  15 C :   -0.310875    0.000142
  16 C :   -0.293335    0.000153
  17 C :   -0.310855    0.000153
  18 C :   -0.184425   -0.000034
  19 H :    0.066006   -0.000026
  20 H :    0.047081    0.000005
  21 H :    0.046704    0.000018
  22 H :    0.053431    0.000012
  23 H :    0.047103    0.000007
  24 H :    0.066145   -0.000027
  25 C :   -0.204765   -0.000043
  26 H :    0.056783    0.000005
  27 H :    0.067896   -0.000030
  28 H :    0.056599    0.000012
  29 H :    0.054371    0.000024
  30 H :    0.067988   -0.000029
  31 H :    0.056765    0.000003

  Mayer bond orders larger than 0.100000
B(  0-V ,  1-S ) :   0.7783 B(  0-V ,  2-S ) :   0.7856 B(  0-V ,  3-S ) :   0.7803
B(  0-V ,  4-S ) :   0.7832 B(  0-V ,  5-O ) :   2.1244 B(  1-S ,  8-C ) :   1.1401
B(  2-S ,  6-C ) :   1.1374 B(  3-S ,  9-C ) :   1.1389 B(  4-S ,  7-C ) :   1.1385
B(  6-C ,  7-C ) :   1.5195 B(  6-C , 10-S ) :   0.9532 B(  7-C , 11-S ) :   0.9532
B(  8-C ,  9-C ) :   1.4737 B(  8-C , 13-S ) :   0.9705 B(  9-C , 12-S ) :   0.9708
B( 10-S , 16-C ) :   1.0058 B( 11-S , 14-C ) :   1.0059 B( 12-S , 15-C ) :   0.9782
B( 13-S , 17-C ) :   0.9783 B( 14-C , 18-C ) :   0.8790 B( 14-C , 23-H ) :   0.9705
B( 14-C , 24-H ) :   0.9739 B( 15-C , 25-C ) :   0.8496 B( 15-C , 30-H ) :   1.0046
B( 15-C , 31-H ) :   0.9574 B( 16-C , 18-C ) :   0.8792 B( 16-C , 19-H ) :   0.9739
B( 16-C , 20-H ) :   0.9706 B( 17-C , 25-C ) :   0.8503 B( 17-C , 26-H ) :   0.9576
B( 17-C , 27-H ) :   1.0044 B( 18-C , 21-H ) :   0.9536 B( 18-C , 22-H ) :   0.9732
B( 25-C , 28-H ) :   0.9756 B( 25-C , 29-H ) :   0.9296

FINAL SINGLE POINT ENERGY     -4592.690243316897

DIPOLE MOMENT
-------------
                                X             Y             Z
Electronic contribution:      4.88047     -15.00016      21.43850
Nuclear contribution   :     -5.60462      16.54677     -23.81902
                        -----------------------------------------
Total Dipole Moment    :     -0.72415       1.54660      -2.38052
                        -----------------------------------------
Magnitude (a.u.)       :      2.92972
Magnitude (Debye)      :      7.44675

Rotational constants in cm-1:     0.012809     0.002549     0.002432
Rotational constants in MHz :   384.005881    76.428086    72.909834

                             ****ORCA TERMINATED NORMALLY****
TOTAL RUN TIME: 0 days 0 hours 27 minutes 25 seconds 75 msec
