                         Program Version 5.0.4 -  RELEASE  -
|  1> ! nofrozencore ReducedPop printbasis
|  2> ! B3LYP TZVP
|  3>
|  4> %basis
|  5> newgto V "CP(PPP)" end
|  6> end
|  7>
|  8> %pal
|  9> nprocs 8
| 10> end
| 11>
| 12> % sym SymThresh 1e-2 end
| 13> * xyz -2 2
| 14> V -0.4865500617468547 -0.9468693557939686 -0.33291425106391415
| 15> S 1.3628908697284912 -1.5460527549318195 1.1591674598846573
| 16> S -1.6350719720451634 -0.17822479480223852 1.688828927134433
| 17> S 1.3199912240321052 -0.43374126825806414 -1.905185199553343
| 18> S -1.6942869521587132 0.9088181083353523 -1.3843667613622086
| 19> O -1.1785305216151045 -2.305399682328524 -0.8070696809341624
| 20> C -2.9107249020165415 0.8906109898189892 1.0804559507765392
| 21> C -2.933839660695961 1.3353674659139267 -0.20381549685935876
| 22> C 2.7539619285631347 -1.6868050558278835 0.07758842261131621
| 23> C 2.7365969590626444 -1.223077335347687 -1.2001488054940903
| 24> S -4.165276557415091 1.3415751686468649 2.3017926194997296
| 25> S -4.206890386608506 2.4534007454155105 -0.8128232208312942
| 26> S 4.1661302383342225 -1.3309075268539514 -2.295696447793945
| 27> S 4.209121924006116 -2.4598520130216026 0.8132157983620549
| 28> C -3.9072369928326256 4.015270748984925 0.13051496692836428
| 29> C 5.375352248439482 -0.17809114899363654 -1.509421214205211
| 30> C -3.8312423998000127 3.1376182876349477 2.560772805345954
| 31> C 5.410534837162634 -1.0620283031626454 0.9201228459450328
| 32> C -4.476660085835226 4.091479373012957 1.5215225203575704
| 33> H -2.77522988680431 3.529342888452614 2.5583837987028257
| 34> H -4.224657611403737 3.17561428085186 3.59679561310998
| 35> H -4.345937822452889 5.123821713378324 1.884625946278005
| 36> H -5.558697435318345 3.985680720102135 1.2461548723398674
| 37> H -4.354728944408777 4.915920548394254 -0.3413872232122437
| 38> H -2.8031375748542358 3.9962302072167497 -0.05389817579187709
| 39> C 6.195201488610896 -0.7486083864725199 -0.35229224808439874
| 40> H 6.109112922991245 -1.3504299149976962 1.7119682038407382
| 41> H 4.8515220145883315 -0.19114127047988996 1.2690071505669749
| 42> H 6.711241156122943 -1.6563987325920246 -0.6833223798779945
| 43> H 6.9742790512020365 -0.012644556206221694 -0.09545605907317849
| 44> H 4.824173402057509 0.7106942736937553 -1.194304889582966
| 45> H 6.044511682792349 0.115061556323001 -2.324494946657735
| 46> *
| 47>
| 48> % eprnmr
| 49> gtensor true
| 50> Nuclei = all H {aiso,adip,aorb,fgrad,rho}
| 51> Nuclei = all V {aiso,adip,aorb,fgrad,rho}
| 52> end
| 53>
| 54>                          ****END OF INPUT****

CARTESIAN COORDINATES (ANGSTROEM)
---------------------------------
  V     -0.487140   -0.947843   -0.333249
  S      1.362301   -1.547027    1.158833
  S     -1.635662   -0.179199    1.688495
  S      1.319402   -0.434715   -1.905520
  S     -1.694877    0.907844   -1.384701
  O     -1.179120   -2.306374   -0.807404
  C     -2.911314    0.889637    1.080122
  C     -2.934429    1.334393   -0.204150
  C      2.753372   -1.687779    0.077254
  C      2.736007   -1.224051   -1.200483
  S     -4.165866    1.340601    2.301458
  S     -4.207480    2.452427   -0.813158
  S      4.165541   -1.331882   -2.296031
  S      4.208532   -2.460826    0.812881
  C     -3.907827    4.014297    0.130181
  C      5.374763   -0.179065   -1.509756
  C     -3.831832    3.136644    2.560438
  C      5.409945   -1.063002    0.919788
  C     -4.477250    4.090505    1.521188
  H     -2.775819    3.528369    2.558049
  H     -4.225247    3.174640    3.596461
  H     -4.346527    5.122848    1.884292
  H     -5.559287    3.984707    1.245821
  H     -4.355319    4.914946   -0.341722
  H     -2.803727    3.995256   -0.054233
  C      6.194612   -0.749582   -0.352627
  H      6.108523   -1.351404    1.711634
  H      4.850932   -0.192115    1.268673
  H      6.710652   -1.657373   -0.683657
  H      6.973689   -0.013619   -0.095790
  H      4.823584    0.709720   -1.194639
  H      6.043922    0.114088   -2.324829

 Total Charge           Charge          ....   -2
 Multiplicity           Mult            ....    2
 Number of Electrons    NEL             ....  233
 Basis Dimension        Dim             ....  517

ORBITAL ENERGIES
----------------
                 SPIN UP ORBITALS
  NO   OCC          E(Eh)            E(eV)
   0   1.0000    -196.640460     -5350.8589
   1   1.0000     -88.681267     -2413.1399
   2   1.0000     -88.676665     -2413.0147
   3   1.0000     -88.676478     -2413.0096
   4   1.0000     -88.674529     -2412.9566
   5   1.0000     -88.612715     -2411.2746
   6   1.0000     -88.612432     -2411.2669
   7   1.0000     -88.612145     -2411.2590
   8   1.0000     -88.612090     -2411.2575
   9   1.0000     -22.016265      -599.0930
  10   1.0000     -18.857515      -513.1391
  11   1.0000     -18.523092      -504.0390
  12   1.0000     -18.517315      -503.8818
  13   1.0000     -18.517277      -503.8807
  14   1.0000     -10.023906      -272.7644
  15   1.0000     -10.016778      -272.5704
  16   1.0000     -10.015483      -272.5352
  17   1.0000     -10.015320      -272.5307
  18   1.0000     -10.008759      -272.3522
  19   1.0000     -10.004689      -272.2414
  20   1.0000      -9.992628      -271.9132
  21   1.0000      -9.991964      -271.8952
  22   1.0000      -9.991610      -271.8855
  23   1.0000      -9.991254      -271.8758
  24   1.0000      -7.734648      -210.4705
  25   1.0000      -7.730318      -210.3527
  26   1.0000      -7.730140      -210.3478
  27   1.0000      -7.728403      -210.3005
  28   1.0000      -7.667196      -208.6350
  29   1.0000      -7.666797      -208.6242
  30   1.0000      -7.666608      -208.6190
  31   1.0000      -7.666544      -208.6173
  32   1.0000      -5.699996      -155.1048
  33   1.0000      -5.696057      -154.9976
  34   1.0000      -5.695561      -154.9841
  35   1.0000      -5.695388      -154.9794
  36   1.0000      -5.693579      -154.9302
  37   1.0000      -5.691673      -154.8783
  38   1.0000      -5.691485      -154.8732
  39   1.0000      -5.689700      -154.8246
  40   1.0000      -5.689295      -154.8136
  41   1.0000      -5.685066      -154.6985
  42   1.0000      -5.684893      -154.6938
  43   1.0000      -5.683198      -154.6477
  44   1.0000      -5.632022      -153.2551
  45   1.0000      -5.631661      -153.2453
  46   1.0000      -5.631430      -153.2390
  47   1.0000      -5.631373      -153.2374
  48   1.0000      -5.625625      -153.0810
  49   1.0000      -5.625225      -153.0702
  50   1.0000      -5.625195      -153.0693
  51   1.0000      -5.625040      -153.0651
  52   1.0000      -5.624984      -153.0636
  53   1.0000      -5.624779      -153.0580
  54   1.0000      -5.624589      -153.0528
  55   1.0000      -5.624523      -153.0510
  56   1.0000      -2.409947       -65.5780
  57   1.0000      -1.451309       -39.4921
  58   1.0000      -1.439733       -39.1771
  59   1.0000      -1.438648       -39.1476
  60   1.0000      -0.644885       -17.5482
  61   1.0000      -0.643906       -17.5216
  62   1.0000      -0.618565       -16.8320
  63   1.0000      -0.594983       -16.1903
  64   1.0000      -0.593689       -16.1551
  65   1.0000      -0.576251       -15.6806
  66   1.0000      -0.575983       -15.6733
  67   1.0000      -0.493682       -13.4338
  68   1.0000      -0.490513       -13.3475
  69   1.0000      -0.487306       -13.2603
  70   1.0000      -0.485427       -13.2091
  71   1.0000      -0.423632       -11.5276
  72   1.0000      -0.420758       -11.4494
  73   1.0000      -0.411869       -11.2075
  74   1.0000      -0.405819       -11.0429
  75   1.0000      -0.375226       -10.2104
  76   1.0000      -0.369989       -10.0679
  77   1.0000      -0.297213        -8.0876
  78   1.0000      -0.292877        -7.9696
  79   1.0000      -0.278723        -7.5844
  80   1.0000      -0.277724        -7.5573
  81   1.0000      -0.259562        -7.0630
  82   1.0000      -0.253299        -6.8926
  83   1.0000      -0.242172        -6.5898
  84   1.0000      -0.239697        -6.5225
  85   1.0000      -0.195620        -5.3231
  86   1.0000      -0.193046        -5.2530
  87   1.0000      -0.192152        -5.2287
  88   1.0000      -0.186217        -5.0672
  89   1.0000      -0.184592        -5.0230
  90   1.0000      -0.180316        -4.9066
  91   1.0000      -0.177464        -4.8290
  92   1.0000      -0.156489        -4.2583
  93   1.0000      -0.150830        -4.1043
  94   1.0000      -0.146584        -3.9888
  95   1.0000      -0.142820        -3.8863
  96   1.0000      -0.129251        -3.5171
  97   1.0000      -0.098971        -2.6931
  98   1.0000      -0.096346        -2.6217
  99   1.0000      -0.089239        -2.4283
 100   1.0000      -0.084611        -2.3024
 101   1.0000      -0.080572        -2.1925
 102   1.0000      -0.079735        -2.1697
 103   1.0000      -0.069782        -1.8989
 104   1.0000      -0.050402        -1.3715
 105   1.0000      -0.038958        -1.0601
 106   1.0000      -0.037919        -1.0318
 107   1.0000      -0.035984        -0.9792
 108   1.0000      -0.032175        -0.8755
 109   1.0000      -0.013492        -0.3671
 110   1.0000      -0.004586        -0.1248
 111   1.0000      -0.003541        -0.0964
 112   1.0000       0.005843         0.1590
 113   1.0000       0.010321         0.2809
 114   1.0000       0.015930         0.4335
 115   1.0000       0.033297         0.9060
 116   1.0000       0.059443         1.6175
 117   0.0000       0.186385         5.0718
 118   0.0000       0.193901         5.2763
 119   0.0000       0.194872         5.3027
 120   0.0000       0.196427         5.3450
 121   0.0000       0.211140         5.7454

                 SPIN DOWN ORBITALS
  NO   OCC          E(Eh)            E(eV)
   0   1.0000    -196.640601     -5350.8628
   1   1.0000     -88.681279     -2413.1403
   2   1.0000     -88.676678     -2413.0151
   3   1.0000     -88.676491     -2413.0100
   4   1.0000     -88.674543     -2412.9570
   5   1.0000     -88.612873     -2411.2789
   6   1.0000     -88.612592     -2411.2712
   7   1.0000     -88.612305     -2411.2634
   8   1.0000     -88.612250     -2411.2619
   9   1.0000     -22.001598      -598.6939
  10   1.0000     -18.861088      -513.2363
  11   1.0000     -18.517964      -503.8994
  12   1.0000     -18.501823      -503.4602
  13   1.0000     -18.501145      -503.4417
  14   1.0000     -10.023902      -272.7643
  15   1.0000     -10.016774      -272.5703
  16   1.0000     -10.015479      -272.5351
  17   1.0000     -10.015316      -272.5306
  18   1.0000     -10.008759      -272.3522
  19   1.0000     -10.004689      -272.2414
  20   1.0000      -9.992370      -271.9062
  21   1.0000      -9.991710      -271.8883
  22   1.0000      -9.991360      -271.8787
  23   1.0000      -9.991001      -271.8690
  24   1.0000      -7.734661      -210.4708
  25   1.0000      -7.730332      -210.3530
  26   1.0000      -7.730154      -210.3482
  27   1.0000      -7.728418      -210.3009
  28   1.0000      -7.667343      -208.6390
  29   1.0000      -7.666946      -208.6282
  30   1.0000      -7.666757      -208.6231
  31   1.0000      -7.666694      -208.6213
  32   1.0000      -5.700012      -155.1052
  33   1.0000      -5.696077      -154.9981
  34   1.0000      -5.695578      -154.9846
  35   1.0000      -5.695405      -154.9799
  36   1.0000      -5.693595      -154.9306
  37   1.0000      -5.691693      -154.8788
  38   1.0000      -5.691506      -154.8737
  39   1.0000      -5.689721      -154.8252
  40   1.0000      -5.689311      -154.8140
  41   1.0000      -5.685083      -154.6990
  42   1.0000      -5.684910      -154.6943
  43   1.0000      -5.683216      -154.6482
  44   1.0000      -5.632192      -153.2597
  45   1.0000      -5.631834      -153.2500
  46   1.0000      -5.631601      -153.2437
  47   1.0000      -5.631544      -153.2421
  48   1.0000      -5.626013      -153.0916
  49   1.0000      -5.625614      -153.0807
  50   1.0000      -5.625432      -153.0758
  51   1.0000      -5.625378      -153.0743
  52   1.0000      -5.625329      -153.0730
  53   1.0000      -5.624917      -153.0618
  54   1.0000      -5.624724      -153.0565
  55   1.0000      -5.624658      -153.0547
  56   1.0000      -2.365771       -64.3759
  57   1.0000      -1.432489       -38.9800
  58   1.0000      -1.378324       -37.5061
  59   1.0000      -1.377674       -37.4884
  60   1.0000      -0.644836       -17.5469
  61   1.0000      -0.643856       -17.5202
  62   1.0000      -0.626219       -17.0403
  63   1.0000      -0.594793       -16.1852
  64   1.0000      -0.593488       -16.1496
  65   1.0000      -0.576244       -15.6804
  66   1.0000      -0.575978       -15.6731
  67   1.0000      -0.493700       -13.4342
  68   1.0000      -0.490544       -13.3484
  69   1.0000      -0.487315       -13.2605
  70   1.0000      -0.485454       -13.2099
  71   1.0000      -0.423868       -11.5340
  72   1.0000      -0.421062       -11.4577
  73   1.0000      -0.411886       -11.2080
  74   1.0000      -0.405918       -11.0456
  75   1.0000      -0.375202       -10.2098
  76   1.0000      -0.369992       -10.0680
  77   1.0000      -0.297194        -8.0870
  78   1.0000      -0.292860        -7.9691
  79   1.0000      -0.278703        -7.5839
  80   1.0000      -0.277707        -7.5568
  81   1.0000      -0.259381        -7.0581
  82   1.0000      -0.253231        -6.8908
  83   1.0000      -0.242084        -6.5874
  84   1.0000      -0.239625        -6.5205
  85   1.0000      -0.195217        -5.3121
  86   1.0000      -0.192975        -5.2511
  87   1.0000      -0.192117        -5.2278
  88   1.0000      -0.185854        -5.0574
  89   1.0000      -0.184538        -5.0215
  90   1.0000      -0.178475        -4.8565
  91   1.0000      -0.177392        -4.8271
  92   1.0000      -0.156255        -4.2519
  93   1.0000      -0.150167        -4.0863
  94   1.0000      -0.146342        -3.9822
  95   1.0000      -0.142627        -3.8811
  96   1.0000      -0.129015        -3.5107
  97   1.0000      -0.098037        -2.6677
  98   1.0000      -0.095328        -2.5940
  99   1.0000      -0.089312        -2.4303
 100   1.0000      -0.084467        -2.2985
 101   1.0000      -0.082410        -2.2425
 102   1.0000      -0.079529        -2.1641
 103   1.0000      -0.070978        -1.9314
 104   1.0000      -0.046273        -1.2592
 105   1.0000      -0.038888        -1.0582
 106   1.0000      -0.037413        -1.0181
 107   1.0000      -0.034968        -0.9515
 108   1.0000      -0.032134        -0.8744
 109   1.0000      -0.012596        -0.3428
 110   1.0000      -0.005921        -0.1611
 111   1.0000      -0.002522        -0.0686
 112   1.0000       0.006680         0.1818
 113   1.0000       0.011217         0.3052
 114   1.0000       0.033554         0.9130
 115   1.0000       0.058653         1.5960
 116   0.0000       0.184719         5.0265
 117   0.0000       0.187627         5.1056
 118   0.0000       0.194284         5.2867
 119   0.0000       0.195294         5.3142
 120   0.0000       0.196642         5.3509

MULLIKEN ATOMIC CHARGES AND SPIN POPULATIONS
--------------------------------------------
   0 V :    0.447194    1.199192
   1 S :   -0.253620   -0.024308
   2 S :   -0.252767   -0.024128
   3 S :   -0.253768   -0.024220
   4 S :   -0.253864   -0.023758
   5 O :   -0.506280   -0.138738
   6 C :   -0.100100    0.009115
   7 C :   -0.134134    0.008599
   8 C :   -0.116278    0.008880
   9 C :   -0.115844    0.008911
  10 S :   -0.043307   -0.000127
  11 S :   -0.044856   -0.000221
  12 S :   -0.044701   -0.000191
  13 S :   -0.044815   -0.000230
  14 C :   -0.352672    0.000220
  15 C :   -0.337432    0.000302
  16 C :   -0.292374    0.000290
  17 C :   -0.338643    0.000316
  18 C :   -0.083027    0.000117
  19 H :    0.123143   -0.000075
  20 H :    0.098610    0.000032
  21 H :    0.050512    0.000048
  22 H :    0.067428    0.000011
  23 H :    0.094680    0.000020
  24 H :    0.150500   -0.000079
  25 C :   -0.084111    0.000136
  26 H :    0.101576    0.000029
  27 H :    0.147322   -0.000109
  28 H :    0.078467    0.000011
  29 H :    0.044591    0.000035
  30 H :    0.146751   -0.000105
  31 H :    0.101819    0.000028
Sum of atomic charges         :   -2.0000000

LOEWDIN ATOMIC CHARGES AND SPIN POPULATIONS
-------------------------------------------
   0 V :   -0.242947    1.153152
   1 S :    0.088252   -0.016462
   2 S :    0.087625   -0.016374
   3 S :    0.087953   -0.016389
   4 S :    0.090006   -0.016056
   5 O :   -0.350745   -0.124173
   6 C :   -0.546683    0.010253
   7 C :   -0.560267    0.009711
   8 C :   -0.552784    0.009926
   9 C :   -0.552749    0.010001
  10 S :    0.346548   -0.000994
  11 S :    0.331613   -0.001073
  12 S :    0.336961   -0.001040
  13 S :    0.336491   -0.001062
  14 C :   -0.309699    0.000154
  15 C :   -0.293586    0.000170
  16 C :   -0.297935    0.000175
  17 C :   -0.293921    0.000176
  18 C :   -0.191923   -0.000035
  19 H :    0.073454   -0.000027
  20 H :    0.046722    0.000012
  21 H :    0.046194    0.000017
  22 H :    0.057425    0.000009
  23 H :    0.053039    0.000000
  24 H :    0.069116   -0.000023
  25 C :   -0.184870   -0.000039
  26 H :    0.047364    0.000009
  27 H :    0.065865   -0.000028
  28 H :    0.053426    0.000010
  29 H :    0.046800    0.000018
  30 H :    0.066054   -0.000027
  31 H :    0.047201    0.000009

  Mayer bond orders larger than 0.100000
B(  0-V ,  1-S ) :   0.7892 B(  0-V ,  2-S ) :   0.7910 B(  0-V ,  3-S ) :   0.7911
B(  0-V ,  4-S ) :   0.7858 B(  0-V ,  5-O ) :   2.1082 B(  1-S ,  8-C ) :   1.1375
B(  2-S ,  6-C ) :   1.1393 B(  3-S ,  9-C ) :   1.1370 B(  4-S ,  7-C ) :   1.1342
B(  6-C ,  7-C ) :   1.5156 B(  6-C , 10-S ) :   0.9452 B(  7-C , 11-S ) :   0.9632
B(  8-C ,  9-C ) :   1.5182 B(  8-C , 13-S ) :   0.9537 B(  9-C , 12-S ) :   0.9537
B( 10-S , 16-C ) :   1.0039 B( 11-S , 14-C ) :   1.0038 B( 12-S , 15-C ) :   1.0049
B( 13-S , 17-C ) :   1.0055 B( 14-C , 18-C ) :   0.8583 B( 14-C , 23-H ) :   0.9627
B( 14-C , 24-H ) :   0.9790 B( 15-C , 25-C ) :   0.8785 B( 15-C , 30-H ) :   0.9747
B( 15-C , 31-H ) :   0.9703 B( 16-C , 18-C ) :   0.8994 B( 16-C , 19-H ) :   0.9542
B( 16-C , 20-H ) :   0.9747 B( 17-C , 25-C ) :   0.8775 B( 17-C , 26-H ) :   0.9699
B( 17-C , 27-H ) :   0.9754 B( 18-C , 21-H ) :   0.9603 B( 18-C , 22-H ) :   0.9637
B( 25-C , 28-H ) :   0.9739 B( 25-C , 29-H ) :   0.9526

FINAL SINGLE POINT ENERGY     -4592.698766511793

DIPOLE MOMENT
-------------
                                X             Y             Z
Electronic contribution:    -11.62318     -22.80923      -7.69360
Nuclear contribution   :     12.99142      25.33409       8.64357
                        -----------------------------------------
Total Dipole Moment    :      1.36824       2.52486       0.94997
                        -----------------------------------------
Magnitude (a.u.)       :      3.02480
Magnitude (Debye)      :      7.68844

Rotational constants in cm-1:     0.012769     0.002548     0.002431
Rotational constants in MHz :   382.814663    76.397508    72.882310

                             ****ORCA TERMINATED NORMALLY****
TOTAL RUN TIME: 0 days 0 hours 27 minutes 38 seconds 263 msec
