                         Program Version 5.0.4 -  RELEASE  -
|  1> ! nofrozencore ReducedPop printbasis
|  2> ! B3LYP TZVP
|  3>
|  4> %basis
|  5> newgto V "CP(PPP)" end
|  6> end
|  7>
|  8> %pal
|  9> nprocs 4
| 10> end
| 11>
| 12> % sym SymThresh 1e-2 end
| 13> * xyz -2 2
| 14> V -0.5046284235391855 -0.9763387551722947 0.19035949780867317
| 15> S -1.6441418134170465 0.09388083958441026 -1.6968565206070407
| 16> S 1.3377874841987194 -1.3713401524826456 -1.3738444622442294
| 17> S -1.6634288647988664 0.7396155414439308 1.4987624476619221
| 18> S 1.3061193428420872 -0.7535844365628501 1.827261285938332
| 19> O -1.231344723771253 -2.3723524573425494 0.4592247689165576
| 20> C 2.7264276850260996 -1.6974531656263703 -0.3295601844341043
| 21> C 2.713937146725757 -1.4376749713731676 1.004628544875776
| 22> C -2.89821351092748 1.0789349507017216 -0.9339538771634732
| 23> C -2.906590836961799 1.3482635041394635 0.3984675340366951
| 24> S 4.169027403181221 -2.369518227228844 -1.1776697872096125
| 25> S 4.141345314267729 -1.7361612192171005 2.0683647514305417
| 26> S -4.163233613466017 2.3838117435437676 1.175376822951055
| 27> S -4.1440600636930425 1.72798115834403 -2.066724386937321
| 28> C 5.384122175399014 -0.5003508679372591 1.4947613301791807
| 29> C -3.8138197021233124 4.054315226363565 0.47028365882583206
| 30> C 5.381712106039021 -0.9784322769177621 -1.0456290960807075
| 31> C -3.800518584584676 3.541901895759576 -2.0639851786798795
| 32> C 6.184994340034563 -0.9169747617372873 0.12085478375003175
| 33> H 4.793248190074794 -0.11075170635417118 -1.383075558972953
| 34> H 6.184276620800721 -1.1321392725667945 -1.7883478703740923
| 35> H 6.973094698472394 -0.08762528301954678 0.3662957974901461
| 36> H 6.679225677419713 -1.7564557827250802 0.9047031704867652
| 37> H 5.945762119081676 -0.3319917575073175 2.4298637409777917
| 38> H 4.895083580451476 0.43778290097322414 1.1775950662361951
| 39> C -4.404479652445646 4.340852997130487 -0.9069635705085166
| 40> H -4.210588472618141 3.902044967609978 -3.012806233121853
| 41> H -2.7159921416788277 3.6659382280613535 -2.1000156852695744
| 42> H -5.485939720630432 4.166988823631816 -0.8900281682580835
| 43> H -4.255262153410227 5.409665785121638 -1.1305853509597839
| 44> H -2.7292081694291137 4.182223936126751 0.4719890146421337
| 45> H -4.234122515984307 4.758042176066413 1.1957009445086701
| 46> *
| 47>
| 48> % eprnmr
| 49> gtensor true
| 50> Nuclei = all H {aiso,adip,aorb,fgrad,rho}
| 51> Nuclei = all V {aiso,adip,aorb,fgrad,rho}
| 52> end
| 53>
| 54>                          ****END OF INPUT****

CARTESIAN COORDINATES (ANGSTROEM)
---------------------------------
  V     -0.505091   -0.977412    0.190563
  S     -1.644605    0.092807   -1.696653
  S      1.337324   -1.372414   -1.373641
  S     -1.663892    0.738542    1.498966
  S      1.305656   -0.754658    1.827465
  O     -1.231808   -2.373426    0.459429
  C      2.725965   -1.698527   -0.329356
  C      2.713474   -1.438749    1.004832
  C     -2.898677    1.077861   -0.933750
  C     -2.907054    1.347190    0.398671
  S      4.168564   -2.370592   -1.177466
  S      4.140882   -1.737235    2.068569
  S     -4.163697    2.382738    1.175581
  S     -4.144523    1.726908   -2.066521
  C      5.383659   -0.501424    1.494965
  C     -3.814283    4.053242    0.470487
  C      5.381249   -0.979506   -1.045425
  C     -3.800982    3.540828   -2.063781
  C      6.184531   -0.918048    0.121059
  H      4.792785   -0.111825   -1.382872
  H      6.183814   -1.133213   -1.788144
  H      6.972632   -0.088699    0.366500
  H      6.678763   -1.757529    0.904907
  H      5.945299   -0.333065    2.430068
  H      4.894621    0.436709    1.177799
  C     -4.404943    4.339779   -0.906760
  H     -4.211052    3.900971   -3.012602
  H     -2.716455    3.664865   -2.099812
  H     -5.486403    4.165915   -0.889824
  H     -4.255725    5.408592   -1.130382
  H     -2.729671    4.181150    0.472193
  H     -4.234586    4.756969    1.195905

 Total Charge           Charge          ....   -2
 Multiplicity           Mult            ....    2
 Number of Electrons    NEL             ....  233
 Basis Dimension        Dim             ....  517

ORBITAL ENERGIES
----------------
                 SPIN UP ORBITALS
  NO   OCC          E(Eh)            E(eV)
   0   1.0000    -196.641131     -5350.8772
   1   1.0000     -88.681620     -2413.1496
   2   1.0000     -88.677064     -2413.0256
   3   1.0000     -88.676939     -2413.0222
   4   1.0000     -88.676069     -2412.9985
   5   1.0000     -88.613605     -2411.2988
   6   1.0000     -88.613275     -2411.2898
   7   1.0000     -88.612755     -2411.2756
   8   1.0000     -88.612654     -2411.2729
   9   1.0000     -22.016939      -599.1114
  10   1.0000     -18.858181      -513.1572
  11   1.0000     -18.523759      -504.0571
  12   1.0000     -18.517990      -503.9001
  13   1.0000     -18.517953      -503.8991
  14   1.0000     -10.025691      -272.8129
  15   1.0000     -10.023323      -272.7485
  16   1.0000     -10.019241      -272.6374
  17   1.0000     -10.015887      -272.5462
  18   1.0000     -10.015764      -272.5428
  19   1.0000     -10.005094      -272.2525
  20   1.0000      -9.993566      -271.9388
  21   1.0000      -9.992816      -271.9183
  22   1.0000      -9.992504      -271.9099
  23   1.0000      -9.991787      -271.8903
  24   1.0000      -7.735099      -210.4828
  25   1.0000      -7.730725      -210.3637
  26   1.0000      -7.730608      -210.3605
  27   1.0000      -7.729839      -210.3396
  28   1.0000      -7.668072      -208.6588
  29   1.0000      -7.667671      -208.6479
  30   1.0000      -7.667183      -208.6347
  31   1.0000      -7.667121      -208.6330
  32   1.0000      -5.700519      -155.1190
  33   1.0000      -5.696452      -155.0083
  34   1.0000      -5.695971      -154.9952
  35   1.0000      -5.695846      -154.9919
  36   1.0000      -5.694988      -154.9685
  37   1.0000      -5.692079      -154.8893
  38   1.0000      -5.691962      -154.8862
  39   1.0000      -5.691135      -154.8637
  40   1.0000      -5.689657      -154.8234
  41   1.0000      -5.685464      -154.7093
  42   1.0000      -5.685357      -154.7064
  43   1.0000      -5.684734      -154.6895
  44   1.0000      -5.632904      -153.2791
  45   1.0000      -5.632523      -153.2687
  46   1.0000      -5.632022      -153.2551
  47   1.0000      -5.631944      -153.2530
  48   1.0000      -5.626490      -153.1046
  49   1.0000      -5.626081      -153.0935
  50   1.0000      -5.626064      -153.0930
  51   1.0000      -5.625676      -153.0824
  52   1.0000      -5.625627      -153.0811
  53   1.0000      -5.625569      -153.0795
  54   1.0000      -5.625170      -153.0687
  55   1.0000      -5.625090      -153.0665
  56   1.0000      -2.410637       -65.5968
  57   1.0000      -1.451991       -39.5107
  58   1.0000      -1.440423       -39.1959
  59   1.0000      -1.439337       -39.1664
  60   1.0000      -0.649034       -17.6611
  61   1.0000      -0.644338       -17.5333
  62   1.0000      -0.619207       -16.8495
  63   1.0000      -0.597271       -16.2526
  64   1.0000      -0.594192       -16.1688
  65   1.0000      -0.577998       -15.7281
  66   1.0000      -0.576423       -15.6853
  67   1.0000      -0.493802       -13.4370
  68   1.0000      -0.491216       -13.3667
  69   1.0000      -0.487856       -13.2752
  70   1.0000      -0.487132       -13.2555
  71   1.0000      -0.426817       -11.6143
  72   1.0000      -0.421840       -11.4789
  73   1.0000      -0.411952       -11.2098
  74   1.0000      -0.404783       -11.0147
  75   1.0000      -0.375549       -10.2192
  76   1.0000      -0.368876       -10.0376
  77   1.0000      -0.293296        -7.9810
  78   1.0000      -0.292365        -7.9557
  79   1.0000      -0.281622        -7.6633
  80   1.0000      -0.278136        -7.5685
  81   1.0000      -0.263945        -7.1823
  82   1.0000      -0.261319        -7.1108
  83   1.0000      -0.255798        -6.9606
  84   1.0000      -0.241292        -6.5659
  85   1.0000      -0.204770        -5.5721
  86   1.0000      -0.194715        -5.2985
  87   1.0000      -0.192686        -5.2432
  88   1.0000      -0.185175        -5.0389
  89   1.0000      -0.184216        -5.0128
  90   1.0000      -0.178420        -4.8550
  91   1.0000      -0.154927        -4.2158
  92   1.0000      -0.151759        -4.1296
  93   1.0000      -0.150015        -4.0821
  94   1.0000      -0.144745        -3.9387
  95   1.0000      -0.143313        -3.8997
  96   1.0000      -0.113583        -3.0907
  97   1.0000      -0.098146        -2.6707
  98   1.0000      -0.097152        -2.6436
  99   1.0000      -0.089864        -2.4453
 100   1.0000      -0.083656        -2.2764
 101   1.0000      -0.082244        -2.2380
 102   1.0000      -0.081171        -2.2088
 103   1.0000      -0.070391        -1.9154
 104   1.0000      -0.051178        -1.3926
 105   1.0000      -0.040110        -1.0914
 106   1.0000      -0.038476        -1.0470
 107   1.0000      -0.036453        -0.9919
 108   1.0000      -0.032222        -0.8768
 109   1.0000      -0.014017        -0.3814
 110   1.0000      -0.005366        -0.1460
 111   1.0000      -0.004110        -0.1118
 112   1.0000       0.005107         0.1390
 113   1.0000       0.009684         0.2635
 114   1.0000       0.015241         0.4147
 115   1.0000       0.032520         0.8849
 116   1.0000       0.058705         1.5974
 117   0.0000       0.181054         4.9267
 118   0.0000       0.189558         5.1581
 119   0.0000       0.196075         5.3355
 120   0.0000       0.196326         5.3423
 121   0.0000       0.209000         5.6872

                 SPIN DOWN ORBITALS
  NO   OCC          E(Eh)            E(eV)
   0   1.0000    -196.641272     -5350.8810
   1   1.0000     -88.681633     -2413.1499
   2   1.0000     -88.677077     -2413.0259
   3   1.0000     -88.676952     -2413.0225
   4   1.0000     -88.676082     -2412.9989
   5   1.0000     -88.613763     -2411.3031
   6   1.0000     -88.613434     -2411.2941
   7   1.0000     -88.612915     -2411.2800
   8   1.0000     -88.612814     -2411.2773
   9   1.0000     -22.002268      -598.7121
  10   1.0000     -18.861769      -513.2548
  11   1.0000     -18.518626      -503.9174
  12   1.0000     -18.502496      -503.4785
  13   1.0000     -18.501819      -503.4601
  14   1.0000     -10.025691      -272.8129
  15   1.0000     -10.023319      -272.7484
  16   1.0000     -10.019238      -272.6373
  17   1.0000     -10.015884      -272.5461
  18   1.0000     -10.015760      -272.5427
  19   1.0000     -10.005094      -272.2525
  20   1.0000      -9.993311      -271.9318
  21   1.0000      -9.992564      -271.9115
  22   1.0000      -9.992249      -271.9029
  23   1.0000      -9.991534      -271.8835
  24   1.0000      -7.735113      -210.4831
  25   1.0000      -7.730739      -210.3641
  26   1.0000      -7.730622      -210.3609
  27   1.0000      -7.729853      -210.3400
  28   1.0000      -7.668218      -208.6628
  29   1.0000      -7.667819      -208.6520
  30   1.0000      -7.667332      -208.6387
  31   1.0000      -7.667270      -208.6370
  32   1.0000      -5.700534      -155.1194
  33   1.0000      -5.696473      -155.0089
  34   1.0000      -5.695988      -154.9957
  35   1.0000      -5.695863      -154.9923
  36   1.0000      -5.695006      -154.9690
  37   1.0000      -5.692099      -154.8899
  38   1.0000      -5.691983      -154.8867
  39   1.0000      -5.691154      -154.8642
  40   1.0000      -5.689673      -154.8239
  41   1.0000      -5.685481      -154.7098
  42   1.0000      -5.685375      -154.7069
  43   1.0000      -5.684749      -154.6899
  44   1.0000      -5.633074      -153.2837
  45   1.0000      -5.632694      -153.2734
  46   1.0000      -5.632194      -153.2598
  47   1.0000      -5.632115      -153.2576
  48   1.0000      -5.626876      -153.1151
  49   1.0000      -5.626472      -153.1041
  50   1.0000      -5.626197      -153.0966
  51   1.0000      -5.626021      -153.0918
  52   1.0000      -5.625962      -153.0902
  53   1.0000      -5.625811      -153.0861
  54   1.0000      -5.625305      -153.0723
  55   1.0000      -5.625225      -153.0701
  56   1.0000      -2.366447       -64.3943
  57   1.0000      -1.433153       -38.9981
  58   1.0000      -1.379005       -37.5246
  59   1.0000      -1.378359       -37.5071
  60   1.0000      -0.648992       -17.6600
  61   1.0000      -0.644288       -17.5320
  62   1.0000      -0.626893       -17.0586
  63   1.0000      -0.597076       -16.2473
  64   1.0000      -0.593993       -16.1634
  65   1.0000      -0.577984       -15.7277
  66   1.0000      -0.576418       -15.6851
  67   1.0000      -0.493808       -13.4372
  68   1.0000      -0.491243       -13.3674
  69   1.0000      -0.487872       -13.2757
  70   1.0000      -0.487160       -13.2563
  71   1.0000      -0.427074       -11.6213
  72   1.0000      -0.422138       -11.4870
  73   1.0000      -0.411971       -11.2103
  74   1.0000      -0.404871       -11.0171
  75   1.0000      -0.375530       -10.2187
  76   1.0000      -0.368872       -10.0375
  77   1.0000      -0.293277        -7.9805
  78   1.0000      -0.292354        -7.9554
  79   1.0000      -0.281611        -7.6630
  80   1.0000      -0.278116        -7.5679
  81   1.0000      -0.263920        -7.1816
  82   1.0000      -0.261097        -7.1048
  83   1.0000      -0.255737        -6.9590
  84   1.0000      -0.241202        -6.5634
  85   1.0000      -0.204677        -5.5695
  86   1.0000      -0.194374        -5.2892
  87   1.0000      -0.192638        -5.2419
  88   1.0000      -0.185014        -5.0345
  89   1.0000      -0.182857        -4.9758
  90   1.0000      -0.177603        -4.8328
  91   1.0000      -0.154699        -4.2096
  92   1.0000      -0.151222        -4.1150
  93   1.0000      -0.149633        -4.0717
  94   1.0000      -0.144532        -3.9329
  95   1.0000      -0.143127        -3.8947
  96   1.0000      -0.113493        -3.0883
  97   1.0000      -0.096771        -2.6333
  98   1.0000      -0.096525        -2.6266
  99   1.0000      -0.090060        -2.4507
 100   1.0000      -0.083630        -2.2757
 101   1.0000      -0.083010        -2.2588
 102   1.0000      -0.081880        -2.2281
 103   1.0000      -0.071645        -1.9496
 104   1.0000      -0.047060        -1.2806
 105   1.0000      -0.039945        -1.0870
 106   1.0000      -0.038029        -1.0348
 107   1.0000      -0.035525        -0.9667
 108   1.0000      -0.032060        -0.8724
 109   1.0000      -0.013104        -0.3566
 110   1.0000      -0.006711        -0.1826
 111   1.0000      -0.003134        -0.0853
 112   1.0000       0.005958         0.1621
 113   1.0000       0.010578         0.2878
 114   1.0000       0.032776         0.8919
 115   1.0000       0.057913         1.5759
 116   0.0000       0.181314         4.9338
 117   0.0000       0.184381         5.0173
 118   0.0000       0.190692         5.1890
 119   0.0000       0.196258         5.3405
 120   0.0000       0.196715         5.3529

MULLIKEN ATOMIC CHARGES AND SPIN POPULATIONS
--------------------------------------------
   0 V :    0.447477    1.199370
   1 S :   -0.253815   -0.024297
   2 S :   -0.254657   -0.023754
   3 S :   -0.253457   -0.024308
   4 S :   -0.249075   -0.023955
   5 O :   -0.505953   -0.139037
   6 C :   -0.138708    0.008702
   7 C :   -0.092055    0.008975
   8 C :   -0.115291    0.008935
   9 C :   -0.116758    0.008874
  10 S :   -0.028544   -0.000179
  11 S :   -0.050618   -0.000128
  12 S :   -0.044097   -0.000202
  13 S :   -0.044802   -0.000224
  14 C :   -0.397491    0.000302
  15 C :   -0.337511    0.000297
  16 C :   -0.311627    0.000281
  17 C :   -0.338681    0.000318
  18 C :   -0.077928    0.000145
  19 H :    0.166106   -0.000094
  20 H :    0.100867    0.000024
  21 H :    0.042078    0.000047
  22 H :    0.058244   -0.000039
  23 H :    0.115535    0.000028
  24 H :    0.143890   -0.000106
  25 C :   -0.083758    0.000138
  26 H :    0.101952    0.000029
  27 H :    0.146459   -0.000109
  28 H :    0.078455    0.000011
  29 H :    0.044636    0.000035
  30 H :    0.147341   -0.000106
  31 H :    0.101785    0.000027
Sum of atomic charges         :   -2.0000000

LOEWDIN ATOMIC CHARGES AND SPIN POPULATIONS
-------------------------------------------
   0 V :   -0.242677    1.153360
   1 S :    0.088108   -0.016476
   2 S :    0.086847   -0.016017
   3 S :    0.088256   -0.016458
   4 S :    0.091963   -0.016272
   5 O :   -0.350455   -0.124468
   6 C :   -0.557660    0.009907
   7 C :   -0.548239    0.010060
   8 C :   -0.552426    0.009963
   9 C :   -0.552991    0.009971
  10 S :    0.350992   -0.001019
  11 S :    0.331821   -0.000995
  12 S :    0.337169   -0.001049
  13 S :    0.336666   -0.001056
  14 C :   -0.326034    0.000180
  15 C :   -0.293499    0.000168
  16 C :   -0.303101    0.000148
  17 C :   -0.293914    0.000179
  18 C :   -0.219746   -0.000049
  19 H :    0.079905   -0.000024
  20 H :    0.058365    0.000005
  21 H :    0.057513    0.000023
  22 H :    0.084878   -0.000009
  23 H :    0.048083    0.000010
  24 H :    0.058110   -0.000033
  25 C :   -0.184826   -0.000039
  26 H :    0.047241    0.000009
  27 H :    0.065635   -0.000028
  28 H :    0.053475    0.000010
  29 H :    0.046842    0.000018
  30 H :    0.066239   -0.000027
  31 H :    0.047459    0.000008

  Mayer bond orders larger than 0.100000
B(  0-V ,  1-S ) :   0.7895 B(  0-V ,  2-S ) :   0.7862 B(  0-V ,  3-S ) :   0.7919
B(  0-V ,  4-S ) :   0.7886 B(  0-V ,  5-O ) :   2.1086 B(  1-S ,  8-C ) :   1.1376
B(  2-S ,  6-C ) :   1.1312 B(  3-S ,  9-C ) :   1.1365 B(  4-S ,  7-C ) :   1.1465
B(  6-C ,  7-C ) :   1.5113 B(  6-C , 10-S ) :   0.9756 B(  7-C , 11-S ) :   0.9356
B(  8-C ,  9-C ) :   1.5183 B(  8-C , 13-S ) :   0.9534 B(  9-C , 12-S ) :   0.9545
B( 10-S , 16-C ) :   0.9611 B( 11-S , 14-C ) :   1.0249 B( 12-S , 15-C ) :   1.0042
B( 13-S , 17-C ) :   1.0063 B( 14-C , 18-C ) :   0.7963 B( 14-C , 23-H ) :   0.9647
B( 14-C , 24-H ) :   0.9638 B( 15-C , 25-C ) :   0.8797 B( 15-C , 30-H ) :   0.9751
B( 15-C , 31-H ) :   0.9701 B( 16-C , 18-C ) :   0.9489 B( 16-C , 19-H ) :   0.9635
B( 16-C , 20-H ) :   0.9651 B( 17-C , 25-C ) :   0.8765 B( 17-C , 26-H ) :   0.9701
B( 17-C , 27-H ) :   0.9750 B( 18-C , 21-H ) :   0.9523 B( 18-C , 22-H ) :   0.9455
B( 25-C , 28-H ) :   0.9739 B( 25-C , 29-H ) :   0.9527

FINAL SINGLE POINT ENERGY     -4592.644951286311

DIPOLE MOMENT
-------------
                                X             Y             Z
Electronic contribution:    -12.26759     -23.46356       3.88878
Nuclear contribution   :     13.43872      26.18475      -4.40574
                        -----------------------------------------
Total Dipole Moment    :      1.17113       2.72119      -0.51696
                        -----------------------------------------
Magnitude (a.u.)       :      3.00727
Magnitude (Debye)      :      7.64387

Rotational constants in cm-1:     0.012766     0.002548     0.002431
Rotational constants in MHz :   382.719071    76.398875    72.878049

                             ****ORCA TERMINATED NORMALLY****
TOTAL RUN TIME: 0 days 0 hours 43 minutes 17 seconds 740 msec
