                         Program Version 5.0.4 -  RELEASE  -
|  1> ! nofrozencore ReducedPop printbasis
|  2> ! B3LYP TZVP
|  3>
|  4> %basis
|  5> newgto V "CP(PPP)" end
|  6> end
|  7>
|  8> %pal
|  9> nprocs 8
| 10> end
| 11>
| 12> % sym SymThresh 1e-2 end
| 13> * xyz -2 2
| 14> V -1.0729317445647986 -0.31792703568358804 -0.03041858820826753
| 15> S 0.3190134699456182 -1.6248516257976082 -1.79484514570899
| 16> S 0.22601065358416203 -1.6028650612036037 1.8202585573948629
| 17> S -0.9237982320568812 1.3922303885998968 -1.5610045873070204
| 18> S -1.0342789819720988 1.40838005169292 1.495575741119856
| 19> O -2.5191902797786434 -1.0021211939034647 -0.07325443721231789
| 20> C -0.07364711508758941 -0.6654984983027642 3.200218476145815
| 21> C -0.5302822751199447 0.6148979052526872 3.0874498340351173
| 22> C 0.11520457465731458 -0.6933313513938796 -3.1931714485804488
| 23> C -0.3368313166405251 0.5902885131157929 -3.1166699950273458
| 24> S 0.4932554711623258 -1.616672850358882 4.697299114808202
| 25> S -0.6766356065820628 1.480377244859988 4.612597107772591
| 26> S -0.40852660866826407 1.4392945368187753 -4.654724856997526
| 27> S 0.7402912800143996 -1.661975234083927 -4.650969163212687
| 28> C 1.0317646271636476 1.9070748324099642 5.191041088989988
| 29> C 1.331386228626838 1.852075081598668 -5.132293547989641
| 30> C 1.9063954003945116 -0.5273552165016329 5.199794468043729
| 31> C 2.1871735719076852 -0.588215106525587 -5.075376895893808
| 32> C 1.6632445546776127 0.7704548515190145 5.983280896938576
| 33> H 2.440581846864624 -0.3044645709454102 4.27063024537092
| 34> H 2.5535379261460327 -1.1803268524538275 5.800320215656482
| 35> H 2.6463422287729226 1.1011227591182946 6.360198044443575
| 36> H 1.0400914181626875 0.5596059216418716 6.85938343202067
| 37> H 0.8914346035913367 2.7839559921301316 5.8396126640270145
| 38> H 1.6435086015589084 2.207350889173512 4.333390309937334
| 39> C 1.9913670662467964 0.7029768146063708 -5.881328608522695
| 40> H 2.8670142628076225 -1.2472066764684309 -5.63268423126179
| 41> H 2.666153401671675 -0.36063954126928816 -4.117193996922252
| 42> H 1.4064861920838028 0.48647946871116454 -6.782052816210967
| 43> H 2.9927244564817093 1.0223337375697268 -6.217365793660444
| 44> H 1.8931817330097676 2.1486053287345523 -4.240826849151899
| 45> H 1.2410039896365368 2.7270027509442016 -5.7907370944457455
| 46> *
| 47>
| 48> % eprnmr
| 49> gtensor true
| 50> Nuclei = all H {aiso,adip,aorb,fgrad,rho}
| 51> Nuclei = all V {aiso,adip,aorb,fgrad,rho}
| 52> end
| 53>
| 54>                          ****END OF INPUT****

CARTESIAN COORDINATES (ANGSTROEM)
---------------------------------
  V     -1.074035   -0.318360   -0.030367
  S      0.317910   -1.625285   -1.794794
  S      0.224907   -1.603298    1.820310
  S     -0.924902    1.391797   -1.560953
  S     -1.035383    1.407947    1.495627
  O     -2.520294   -1.002555   -0.073203
  C     -0.074751   -0.665932    3.200270
  C     -0.531386    0.614465    3.087501
  C      0.114101   -0.693765   -3.193120
  C     -0.337935    0.589855   -3.116619
  S      0.492152   -1.617106    4.697350
  S     -0.677739    1.479944    4.612648
  S     -0.409630    1.438861   -4.654674
  S      0.739188   -1.662409   -4.650918
  C      1.030661    1.906642    5.191092
  C      1.330283    1.851642   -5.132242
  C      1.905292   -0.527789    5.199846
  C      2.186070   -0.588648   -5.075326
  C      1.662141    0.770022    5.983332
  H      2.439478   -0.304898    4.270681
  H      2.552434   -1.180760    5.800371
  H      2.645239    1.100689    6.360249
  H      1.038988    0.559173    6.859435
  H      0.890331    2.783523    5.839664
  H      1.642405    2.206918    4.333442
  C      1.990263    0.702543   -5.881277
  H      2.865911   -1.247640   -5.632633
  H      2.665050   -0.361073   -4.117143
  H      1.405383    0.486046   -6.782002
  H      2.991621    1.021900   -6.217315
  H      1.892078    2.148172   -4.240776
  H      1.239900    2.726569   -5.790686

 Total Charge           Charge          ....   -2
 Multiplicity           Mult            ....    2
 Number of Electrons    NEL             ....  233
 Basis Dimension        Dim             ....  517

ORBITAL ENERGIES
----------------
                 SPIN UP ORBITALS
  NO   OCC          E(Eh)            E(eV)
   0   1.0000    -196.638819     -5350.8143
   1   1.0000     -88.684156     -2413.2186
   2   1.0000     -88.683857     -2413.2104
   3   1.0000     -88.668671     -2412.7972
   4   1.0000     -88.668655     -2412.7968
   5   1.0000     -88.618166     -2411.4229
   6   1.0000     -88.617987     -2411.4180
   7   1.0000     -88.607364     -2411.1289
   8   1.0000     -88.607206     -2411.1246
   9   1.0000     -22.014672      -599.0497
  10   1.0000     -18.855617      -513.0874
  11   1.0000     -18.521353      -503.9916
  12   1.0000     -18.515797      -503.8404
  13   1.0000     -18.515734      -503.8387
  14   1.0000     -10.017550      -272.5914
  15   1.0000     -10.017235      -272.5828
  16   1.0000     -10.013515      -272.4816
  17   1.0000     -10.013001      -272.4676
  18   1.0000     -10.004941      -272.2483
  19   1.0000     -10.004438      -272.2346
  20   1.0000      -9.996672      -272.0233
  21   1.0000      -9.996081      -272.0072
  22   1.0000      -9.988453      -271.7996
  23   1.0000      -9.987745      -271.7803
  24   1.0000      -7.736724      -210.5270
  25   1.0000      -7.736546      -210.5221
  26   1.0000      -7.723151      -210.1576
  27   1.0000      -7.723087      -210.1559
  28   1.0000      -7.671952      -208.7644
  29   1.0000      -7.671870      -208.7622
  30   1.0000      -7.663316      -208.5294
  31   1.0000      -7.663246      -208.5275
  32   1.0000      -5.701963      -155.1583
  33   1.0000      -5.701761      -155.1528
  34   1.0000      -5.698409      -155.0616
  35   1.0000      -5.698238      -155.0569
  36   1.0000      -5.691314      -154.8685
  37   1.0000      -5.691131      -154.8635
  38   1.0000      -5.688383      -154.7888
  39   1.0000      -5.688338      -154.7875
  40   1.0000      -5.684261      -154.6766
  41   1.0000      -5.684177      -154.6743
  42   1.0000      -5.678014      -154.5066
  43   1.0000      -5.677958      -154.5051
  44   1.0000      -5.637421      -153.4020
  45   1.0000      -5.637301      -153.3988
  46   1.0000      -5.630245      -153.2068
  47   1.0000      -5.630159      -153.2044
  48   1.0000      -5.629537      -153.1875
  49   1.0000      -5.629472      -153.1857
  50   1.0000      -5.627519      -153.1326
  51   1.0000      -5.627429      -153.1301
  52   1.0000      -5.621875      -152.9790
  53   1.0000      -5.621786      -152.9766
  54   1.0000      -5.621520      -152.9693
  55   1.0000      -5.621465      -152.9679
  56   1.0000      -2.409186       -65.5573
  57   1.0000      -1.450013       -39.4569
  58   1.0000      -1.439673       -39.1755
  59   1.0000      -1.438395       -39.1407
  60   1.0000      -0.643567       -17.5124
  61   1.0000      -0.642797       -17.4914
  62   1.0000      -0.616861       -16.7856
  63   1.0000      -0.595700       -16.2098
  64   1.0000      -0.595195       -16.1961
  65   1.0000      -0.574787       -15.6407
  66   1.0000      -0.574070       -15.6213
  67   1.0000      -0.495893       -13.4939
  68   1.0000      -0.494979       -13.4691
  69   1.0000      -0.484500       -13.1839
  70   1.0000      -0.481883       -13.1127
  71   1.0000      -0.429669       -11.6919
  72   1.0000      -0.421709       -11.4753
  73   1.0000      -0.407146       -11.0790
  74   1.0000      -0.404233       -10.9997
  75   1.0000      -0.374607       -10.1936
  76   1.0000      -0.371356       -10.1051
  77   1.0000      -0.291741        -7.9387
  78   1.0000      -0.291279        -7.9261
  79   1.0000      -0.279322        -7.6007
  80   1.0000      -0.278588        -7.5808
  81   1.0000      -0.257155        -6.9975
  82   1.0000      -0.252467        -6.8700
  83   1.0000      -0.240760        -6.5514
  84   1.0000      -0.237681        -6.4676
  85   1.0000      -0.197772        -5.3816
  86   1.0000      -0.195312        -5.3147
  87   1.0000      -0.188377        -5.1260
  88   1.0000      -0.186742        -5.0815
  89   1.0000      -0.185557        -5.0493
  90   1.0000      -0.183230        -4.9859
  91   1.0000      -0.182917        -4.9774
  92   1.0000      -0.152771        -4.1571
  93   1.0000      -0.148088        -4.0297
  94   1.0000      -0.142927        -3.8893
  95   1.0000      -0.142794        -3.8856
  96   1.0000      -0.140727        -3.8294
  97   1.0000      -0.103822        -2.8251
  98   1.0000      -0.094928        -2.5831
  99   1.0000      -0.091974        -2.5027
 100   1.0000      -0.080826        -2.1994
 101   1.0000      -0.080174        -2.1816
 102   1.0000      -0.078406        -2.1335
 103   1.0000      -0.068240        -1.8569
 104   1.0000      -0.051029        -1.3886
 105   1.0000      -0.043765        -1.1909
 106   1.0000      -0.040784        -1.1098
 107   1.0000      -0.034001        -0.9252
 108   1.0000      -0.026892        -0.7318
 109   1.0000      -0.014269        -0.3883
 110   1.0000      -0.008169        -0.2223
 111   1.0000      -0.002231        -0.0607
 112   1.0000       0.009983         0.2717
 113   1.0000       0.011792         0.3209
 114   1.0000       0.017406         0.4736
 115   1.0000       0.033754         0.9185
 116   1.0000       0.059401         1.6164
 117   0.0000       0.187614         5.1052
 118   0.0000       0.191550         5.2124
 119   0.0000       0.195700         5.3253
 120   0.0000       0.197604         5.3771
 121   0.0000       0.207033         5.6337

                 SPIN DOWN ORBITALS
  NO   OCC          E(Eh)            E(eV)
   0   1.0000    -196.638959     -5350.8181
   1   1.0000     -88.684176     -2413.2191
   2   1.0000     -88.683877     -2413.2110
   3   1.0000     -88.668668     -2412.7971
   4   1.0000     -88.668652     -2412.7967
   5   1.0000     -88.618338     -2411.4276
   6   1.0000     -88.618158     -2411.4227
   7   1.0000     -88.607520     -2411.1332
   8   1.0000     -88.607362     -2411.1289
   9   1.0000     -22.000210      -598.6562
  10   1.0000     -18.859136      -513.1832
  11   1.0000     -18.516279      -503.8536
  12   1.0000     -18.500470      -503.4234
  13   1.0000     -18.499900      -503.4079
  14   1.0000     -10.017548      -272.5913
  15   1.0000     -10.017234      -272.5828
  16   1.0000     -10.013507      -272.4814
  17   1.0000     -10.012993      -272.4674
  18   1.0000     -10.004939      -272.2482
  19   1.0000     -10.004436      -272.2346
  20   1.0000      -9.996561      -272.0203
  21   1.0000      -9.995970      -272.0042
  22   1.0000      -9.987930      -271.7854
  23   1.0000      -9.987224      -271.7662
  24   1.0000      -7.736745      -210.5275
  25   1.0000      -7.736567      -210.5227
  26   1.0000      -7.723149      -210.1576
  27   1.0000      -7.723084      -210.1558
  28   1.0000      -7.672107      -208.7686
  29   1.0000      -7.672025      -208.7664
  30   1.0000      -7.663464      -208.5334
  31   1.0000      -7.663393      -208.5315
  32   1.0000      -5.701988      -155.1590
  33   1.0000      -5.701786      -155.1535
  34   1.0000      -5.698431      -155.0622
  35   1.0000      -5.698260      -155.0575
  36   1.0000      -5.691348      -154.8695
  37   1.0000      -5.691165      -154.8645
  38   1.0000      -5.688385      -154.7888
  39   1.0000      -5.688339      -154.7876
  40   1.0000      -5.684263      -154.6767
  41   1.0000      -5.684178      -154.6743
  42   1.0000      -5.677997      -154.5062
  43   1.0000      -5.677940      -154.5046
  44   1.0000      -5.637659      -153.4085
  45   1.0000      -5.637538      -153.4052
  46   1.0000      -5.630621      -153.2170
  47   1.0000      -5.630533      -153.2146
  48   1.0000      -5.629682      -153.1914
  49   1.0000      -5.629617      -153.1897
  50   1.0000      -5.627667      -153.1366
  51   1.0000      -5.627578      -153.1342
  52   1.0000      -5.622204      -152.9879
  53   1.0000      -5.622107      -152.9853
  54   1.0000      -5.621724      -152.9749
  55   1.0000      -5.621677      -152.9736
  56   1.0000      -2.365539       -64.3696
  57   1.0000      -1.431417       -38.9508
  58   1.0000      -1.378751       -37.5177
  59   1.0000      -1.378475       -37.5102
  60   1.0000      -0.643494       -17.5104
  61   1.0000      -0.642725       -17.4894
  62   1.0000      -0.624420       -16.9913
  63   1.0000      -0.595520       -16.2049
  64   1.0000      -0.594990       -16.1905
  65   1.0000      -0.574746       -15.6396
  66   1.0000      -0.574030       -15.6201
  67   1.0000      -0.496012       -13.4972
  68   1.0000      -0.495112       -13.4727
  69   1.0000      -0.484330       -13.1793
  70   1.0000      -0.481727       -13.1085
  71   1.0000      -0.429728       -11.6935
  72   1.0000      -0.421912       -11.4808
  73   1.0000      -0.407224       -11.0811
  74   1.0000      -0.404333       -11.0025
  75   1.0000      -0.374528       -10.1914
  76   1.0000      -0.371350       -10.1049
  77   1.0000      -0.291704        -7.9377
  78   1.0000      -0.291260        -7.9256
  79   1.0000      -0.279237        -7.5984
  80   1.0000      -0.278538        -7.5794
  81   1.0000      -0.256915        -6.9910
  82   1.0000      -0.252431        -6.8690
  83   1.0000      -0.240616        -6.5475
  84   1.0000      -0.237582        -6.4649
  85   1.0000      -0.197312        -5.3691
  86   1.0000      -0.195226        -5.3124
  87   1.0000      -0.188266        -5.1230
  88   1.0000      -0.186730        -5.0812
  89   1.0000      -0.184150        -5.0110
  90   1.0000      -0.183143        -4.9836
  91   1.0000      -0.181863        -4.9488
  92   1.0000      -0.151805        -4.1308
  93   1.0000      -0.147906        -4.0247
  94   1.0000      -0.142846        -3.8870
  95   1.0000      -0.142409        -3.8751
  96   1.0000      -0.140524        -3.8238
  97   1.0000      -0.102791        -2.7971
  98   1.0000      -0.093533        -2.5452
  99   1.0000      -0.091617        -2.4930
 100   1.0000      -0.081565        -2.2195
 101   1.0000      -0.080094        -2.1795
 102   1.0000      -0.079315        -2.1583
 103   1.0000      -0.069143        -1.8815
 104   1.0000      -0.047353        -1.2885
 105   1.0000      -0.043592        -1.1862
 106   1.0000      -0.039720        -1.0808
 107   1.0000      -0.032963        -0.8970
 108   1.0000      -0.025736        -0.7003
 109   1.0000      -0.013382        -0.3641
 110   1.0000      -0.009365        -0.2548
 111   1.0000      -0.001950        -0.0531
 112   1.0000       0.010930         0.2974
 113   1.0000       0.012830         0.3491
 114   1.0000       0.034037         0.9262
 115   1.0000       0.058634         1.5955
 116   0.0000       0.179606         4.8873
 117   0.0000       0.188692         5.1346
 118   0.0000       0.193278         5.2594
 119   0.0000       0.195960         5.3324
 120   0.0000       0.197762         5.3814

MULLIKEN ATOMIC CHARGES AND SPIN POPULATIONS
--------------------------------------------
   0 V :    0.456520    1.187596
   1 S :   -0.265954   -0.023153
   2 S :   -0.267790   -0.023246
   3 S :   -0.235566   -0.027016
   4 S :   -0.236411   -0.027222
   5 O :   -0.511809   -0.136548
   6 C :   -0.134956    0.002276
   7 C :   -0.096052    0.020839
   8 C :   -0.137010    0.002338
   9 C :   -0.094529    0.020583
  10 S :   -0.032149   -0.001552
  11 S :   -0.061425    0.002630
  12 S :   -0.060026    0.002587
  13 S :   -0.031781   -0.001579
  14 C :   -0.305868    0.000469
  15 C :   -0.307114    0.000440
  16 C :   -0.366602    0.000005
  17 C :   -0.367641    0.000056
  18 C :   -0.081267    0.000305
  19 H :    0.152552   -0.000153
  20 H :    0.099621   -0.000014
  21 H :    0.044658    0.000088
  22 H :    0.078251    0.000003
  23 H :    0.096409    0.000022
  24 H :    0.136930    0.000007
  25 C :   -0.082241    0.000297
  26 H :    0.099935   -0.000011
  27 H :    0.153500   -0.000161
  28 H :    0.078899    0.000001
  29 H :    0.044119    0.000081
  30 H :    0.137985    0.000006
  31 H :    0.096811    0.000024
Sum of atomic charges         :   -2.0000000

LOEWDIN ATOMIC CHARGES AND SPIN POPULATIONS
-------------------------------------------
   0 V :   -0.252348    1.140364
   1 S :    0.078991   -0.017815
   2 S :    0.076635   -0.017833
   3 S :    0.115480   -0.015401
   4 S :    0.113036   -0.015617
   5 O :   -0.356902   -0.122258
   6 C :   -0.537566    0.004314
   7 C :   -0.566482    0.020158
   8 C :   -0.539206    0.004323
   9 C :   -0.568302    0.020051
  10 S :    0.318290   -0.002010
  11 S :    0.348572    0.001411
  12 S :    0.350084    0.001350
  13 S :    0.319895   -0.002013
  14 C :   -0.295443    0.000394
  15 C :   -0.295117    0.000369
  16 C :   -0.295181    0.000053
  17 C :   -0.295293    0.000070
  18 C :   -0.185190    0.000019
  19 H :    0.067337   -0.000085
  20 H :    0.047062   -0.000020
  21 H :    0.046693    0.000052
  22 H :    0.053573    0.000017
  23 H :    0.047746    0.000008
  24 H :    0.063691    0.000059
  25 C :   -0.185868    0.000014
  26 H :    0.046920   -0.000018
  27 H :    0.067747   -0.000085
  28 H :    0.053647    0.000016
  29 H :    0.046215    0.000049
  30 H :    0.063961    0.000057
  31 H :    0.047325    0.000006

  Mayer bond orders larger than 0.100000
B(  0-V ,  1-S ) :   0.6820 B(  0-V ,  2-S ) :   0.6821 B(  0-V ,  3-S ) :   0.8961
B(  0-V ,  4-S ) :   0.8907 B(  0-V ,  5-O ) :   2.0944 B(  1-S ,  8-C ) :   1.2309
B(  2-S ,  6-C ) :   1.2267 B(  3-S ,  9-C ) :   1.0304 B(  4-S ,  7-C ) :   1.0294
B(  6-C ,  7-C ) :   1.5090 B(  6-C , 10-S ) :   0.9467 B(  7-C , 11-S ) :   0.9739
B(  8-C ,  9-C ) :   1.5033 B(  8-C , 13-S ) :   0.9457 B(  9-C , 12-S ) :   0.9704
B( 10-S , 16-C ) :   1.0344 B( 11-S , 14-C ) :   0.9618 B( 12-S , 15-C ) :   0.9622
B( 13-S , 17-C ) :   1.0329 B( 14-C , 18-C ) :   0.8933 B( 14-C , 23-H ) :   0.9718
B( 14-C , 24-H ) :   0.9711 B( 15-C , 25-C ) :   0.8928 B( 15-C , 30-H ) :   0.9716
B( 15-C , 31-H ) :   0.9713 B( 16-C , 18-C ) :   0.8648 B( 16-C , 19-H ) :   0.9759
B( 16-C , 20-H ) :   0.9700 B( 17-C , 25-C ) :   0.8634 B( 17-C , 26-H ) :   0.9698
B( 17-C , 27-H ) :   0.9763 B( 18-C , 21-H ) :   0.9534 B( 18-C , 22-H ) :   0.9736
B( 25-C , 28-H ) :   0.9740 B( 25-C , 29-H ) :   0.9527

FINAL SINGLE POINT ENERGY     -4592.682271870916

DIPOLE MOMENT
-------------
                                X             Y             Z
Electronic contribution:    -24.84184      -9.81352      -0.71412
Nuclear contribution   :     27.73387      10.80416       0.78139
                        -----------------------------------------
Total Dipole Moment    :      2.89204       0.99064       0.06727
                        -----------------------------------------
Magnitude (a.u.)       :      3.05774
Magnitude (Debye)      :      7.77215

Rotational constants in cm-1:     0.012736     0.002547     0.002429
Rotational constants in MHz :   381.800765    76.349286    72.817206

                             ****ORCA TERMINATED NORMALLY****
TOTAL RUN TIME: 0 days 0 hours 27 minutes 27 seconds 605 msec
