                         Program Version 5.0.4 -  RELEASE  -
|  1> ! nofrozencore ReducedPop printbasis
|  2> ! B3LYP TZVP
|  3>
|  4> %basis
|  5> newgto V "CP(PPP)" end
|  6> end
|  7>
|  8> %pal
|  9> nprocs 4
| 10> end
| 11>
| 12> % sym SymThresh 1e-2 end
| 13> * xyz -2 2
| 14> V -0.601185251317838 0.9138785089077648 -0.21607007488411784
| 15> S 1.6375856250482772 1.6414583481074765 0.46404083736403745
| 16> S 0.45888209679228426 0.19777355947916375 -2.30384701304936
| 17> S -0.8500326078721931 0.39346290525882005 2.164011757015494
| 18> S -2.046017019331566 -1.0254826745719046 -0.6117716864586227
| 19> O -1.458299253819744 2.227006412132471 -0.5229860474187018
| 20> C -0.6999060791814585 -0.9410726608497024 -3.01010303748179
| 21> C -1.7431307302588364 -1.4518601668041544 -2.304093617887891
| 22> C 1.5319026421538902 1.771246981164987 2.229012300125293
| 23> C 0.4952631483173576 1.2513830211567831 2.9376934419958287
| 24> S -0.37786257312926413 -1.3712062128045852 -4.732800183922013
| 25> S -2.9218259447566908 -2.6233308521637415 -3.0079554746865074
| 26> S 0.366592142127893 1.3799461879317412 4.735797050422214
| 27> S 2.9077114159888087 2.6557234296394108 2.9987910784628933
| 28> C -1.8096722396261058 -4.117541962520978 -3.2991308217049427
| 29> C 1.9080743798337378 0.32514795375693123 5.2153920122473805
| 30> C 0.061095065315962 -3.1970825054278587 -4.569707584908816
| 31> C 3.653878355638792 1.202045569210248 4.022641340619167
| 32> C -1.023675102705347 -4.16246518719639 -4.520248857333002
| 33> H 0.8076363850540046 -3.3236995519633874 -3.774808374011358
| 34> H 0.5571805545948496 -3.3687579589916155 -5.538054608046496
| 35> H -0.6163425691994235 -5.179264208600632 -4.657160408478338
| 36> H -1.693107891722297 -3.9710815449358234 -5.367511681887501
| 37> H -2.567030291746424 -4.909114886394543 -3.412993271616097
| 38> H -1.2315494270045206 -4.324534445211583 -2.3891353274072586
| 39> C 3.1535909718896873 0.8997265205105458 5.264677726107443
| 40> H 4.6014302186168905 1.7366009259755313 4.306224943572994
| 41> H 3.9169521518367914 0.3386076231556549 3.363471992838948
| 42> H 3.0524476169858614 1.8480241490397642 5.81369161702065
| 43> H 3.862178941722214 0.2706183144730878 5.839194002805457
| 44> H 1.846212554916194 -0.7006013087321284 4.7761879551395
| 45> H 1.6663986045123036 0.2598699602692254 6.311265821357718
| 46> *
| 47>
| 48> % eprnmr
| 49> gtensor true
| 50> Nuclei = all H {aiso,adip,aorb,fgrad,rho}
| 51> Nuclei = all V {aiso,adip,aorb,fgrad,rho}
| 52> end
| 53>
| 54>                          ****END OF INPUT****

CARTESIAN COORDINATES (ANGSTROEM)
---------------------------------
  V     -0.601847    0.914817   -0.216370
  S      1.636923    1.642396    0.463741
  S      0.458220    0.198712   -2.304147
  S     -0.850695    0.394401    2.163712
  S     -2.046679   -1.024545   -0.612072
  O     -1.458961    2.227945   -0.523286
  C     -0.700568   -0.940135   -3.010403
  C     -1.743793   -1.450922   -2.304394
  C      1.531240    1.772185    2.228712
  C      0.494601    1.252321    2.937393
  S     -0.378525   -1.370268   -4.733100
  S     -2.922488   -2.622393   -3.008256
  S      0.365930    1.380884    4.735497
  S      2.907049    2.656662    2.998491
  C     -1.810334   -4.116604   -3.299431
  C      1.907412    0.326086    5.215092
  C      0.060433   -3.196144   -4.570008
  C      3.653216    1.202984    4.022341
  C     -1.024337   -4.161527   -4.520549
  H      0.806974   -3.322761   -3.775109
  H      0.556518   -3.367820   -5.538355
  H     -0.617005   -5.178326   -4.657461
  H     -1.693770   -3.970143   -5.367812
  H     -2.567693   -4.908177   -3.413294
  H     -1.232212   -4.323596   -2.389436
  C      3.152929    0.900665    5.264377
  H      4.600768    1.737539    4.305925
  H      3.916290    0.339546    3.363172
  H      3.051785    1.848962    5.813391
  H      3.861517    0.271556    5.838894
  H      1.845550   -0.699663    4.775888
  H      1.665736    0.260808    6.310966

 Total Charge           Charge          ....   -2
 Multiplicity           Mult            ....    2
 Number of Electrons    NEL             ....  233
 Basis Dimension        Dim             ....  517

ORBITAL ENERGIES
----------------
                 SPIN UP ORBITALS
  NO   OCC          E(Eh)            E(eV)
   0   1.0000    -196.638537     -5350.8066
   1   1.0000     -88.682419     -2413.1713
   2   1.0000     -88.682400     -2413.1708
   3   1.0000     -88.678667     -2413.0692
   4   1.0000     -88.678641     -2413.0685
   5   1.0000     -88.610150     -2411.2048
   6   1.0000     -88.610133     -2411.2043
   7   1.0000     -88.609988     -2411.2004
   8   1.0000     -88.609899     -2411.1979
   9   1.0000     -22.014391      -599.0420
  10   1.0000     -18.855303      -513.0789
  11   1.0000     -18.521201      -503.9875
  12   1.0000     -18.515440      -503.8307
  13   1.0000     -18.515412      -503.8300
  14   1.0000     -10.011010      -272.4134
  15   1.0000     -10.011000      -272.4132
  16   1.0000     -10.009535      -272.3733
  17   1.0000     -10.009472      -272.3716
  18   1.0000      -9.996667      -272.0231
  19   1.0000      -9.989975      -271.8410
  20   1.0000      -9.989633      -271.8317
  21   1.0000      -9.989251      -271.8213
  22   1.0000      -9.988918      -271.8123
  23   1.0000      -9.988601      -271.8036
  24   1.0000      -7.734617      -210.4696
  25   1.0000      -7.734601      -210.4692
  26   1.0000      -7.731618      -210.3880
  27   1.0000      -7.731580      -210.3870
  28   1.0000      -7.664539      -208.5627
  29   1.0000      -7.664515      -208.5621
  30   1.0000      -7.664346      -208.5575
  31   1.0000      -7.664266      -208.5553
  32   1.0000      -5.699969      -155.1040
  33   1.0000      -5.699953      -155.1036
  34   1.0000      -5.696912      -155.0209
  35   1.0000      -5.696873      -155.0198
  36   1.0000      -5.696184      -155.0011
  37   1.0000      -5.696171      -155.0007
  38   1.0000      -5.693072      -154.9164
  39   1.0000      -5.693036      -154.9154
  40   1.0000      -5.689338      -154.8148
  41   1.0000      -5.689325      -154.8144
  42   1.0000      -5.686364      -154.7338
  43   1.0000      -5.686337      -154.7331
  44   1.0000      -5.629415      -153.1842
  45   1.0000      -5.629383      -153.1833
  46   1.0000      -5.629220      -153.1789
  47   1.0000      -5.629143      -153.1768
  48   1.0000      -5.622961      -153.0086
  49   1.0000      -5.622948      -153.0082
  50   1.0000      -5.622774      -153.0035
  51   1.0000      -5.622703      -153.0015
  52   1.0000      -5.622512      -152.9963
  53   1.0000      -5.622501      -152.9960
  54   1.0000      -5.622316      -152.9910
  55   1.0000      -5.622231      -152.9887
  56   1.0000      -2.407986       -65.5246
  57   1.0000      -1.449215       -39.4351
  58   1.0000      -1.437789       -39.1242
  59   1.0000      -1.436668       -39.0937
  60   1.0000      -0.677994       -18.4492
  61   1.0000      -0.656011       -17.8510
  62   1.0000      -0.616419       -16.7736
  63   1.0000      -0.601716       -16.3735
  64   1.0000      -0.598303       -16.2807
  65   1.0000      -0.571352       -15.5473
  66   1.0000      -0.568142       -15.4599
  67   1.0000      -0.492622       -13.4049
  68   1.0000      -0.489405       -13.3174
  69   1.0000      -0.488571       -13.2947
  70   1.0000      -0.486954       -13.2507
  71   1.0000      -0.427102       -11.6220
  72   1.0000      -0.422758       -11.5038
  73   1.0000      -0.405384       -11.0311
  74   1.0000      -0.397170       -10.8075
  75   1.0000      -0.374619       -10.1939
  76   1.0000      -0.372402       -10.1336
  77   1.0000      -0.305522        -8.3137
  78   1.0000      -0.304709        -8.2915
  79   1.0000      -0.298662        -8.1270
  80   1.0000      -0.288692        -7.8557
  81   1.0000      -0.259889        -7.0719
  82   1.0000      -0.257971        -7.0197
  83   1.0000      -0.251742        -6.8502
  84   1.0000      -0.245472        -6.6796
  85   1.0000      -0.191722        -5.2170
  86   1.0000      -0.187708        -5.1078
  87   1.0000      -0.184504        -5.0206
  88   1.0000      -0.180350        -4.9076
  89   1.0000      -0.178988        -4.8705
  90   1.0000      -0.173029        -4.7084
  91   1.0000      -0.164492        -4.4761
  92   1.0000      -0.149972        -4.0809
  93   1.0000      -0.146320        -3.9816
  94   1.0000      -0.143401        -3.9021
  95   1.0000      -0.143386        -3.9017
  96   1.0000      -0.141622        -3.8537
  97   1.0000      -0.095884        -2.6091
  98   1.0000      -0.095538        -2.5997
  99   1.0000      -0.086770        -2.3611
 100   1.0000      -0.082430        -2.2430
 101   1.0000      -0.080058        -2.1785
 102   1.0000      -0.078340        -2.1317
 103   1.0000      -0.068926        -1.8756
 104   1.0000      -0.047269        -1.2862
 105   1.0000      -0.038787        -1.0554
 106   1.0000      -0.037885        -1.0309
 107   1.0000      -0.036544        -0.9944
 108   1.0000      -0.033842        -0.9209
 109   1.0000      -0.012687        -0.3452
 110   1.0000      -0.003997        -0.1088
 111   1.0000      -0.002119        -0.0577
 112   1.0000       0.008250         0.2245
 113   1.0000       0.010809         0.2941
 114   1.0000       0.017804         0.4845
 115   1.0000       0.036227         0.9858
 116   1.0000       0.062355         1.6968
 117   0.0000       0.184050         5.0083
 118   0.0000       0.185981         5.0608
 119   0.0000       0.191824         5.2198
 120   0.0000       0.192699         5.2436
 121   0.0000       0.198977         5.4144

                 SPIN DOWN ORBITALS
  NO   OCC          E(Eh)            E(eV)
   0   1.0000    -196.638678     -5350.8105
   1   1.0000     -88.682432     -2413.1717
   2   1.0000     -88.682413     -2413.1711
   3   1.0000     -88.678680     -2413.0696
   4   1.0000     -88.678654     -2413.0689
   5   1.0000     -88.610310     -2411.2091
   6   1.0000     -88.610293     -2411.2086
   7   1.0000     -88.610149     -2411.2047
   8   1.0000     -88.610060     -2411.2023
   9   1.0000     -21.999712      -598.6426
  10   1.0000     -18.858893      -513.1766
  11   1.0000     -18.516062      -503.8477
  12   1.0000     -18.499956      -503.4094
  13   1.0000     -18.499254      -503.3903
  14   1.0000     -10.011006      -272.4133
  15   1.0000     -10.010997      -272.4131
  16   1.0000     -10.009530      -272.3732
  17   1.0000     -10.009468      -272.3715
  18   1.0000      -9.996667      -272.0231
  19   1.0000      -9.989719      -271.8341
  20   1.0000      -9.989377      -271.8248
  21   1.0000      -9.988997      -271.8144
  22   1.0000      -9.988664      -271.8054
  23   1.0000      -9.988601      -271.8037
  24   1.0000      -7.734631      -210.4700
  25   1.0000      -7.734615      -210.4696
  26   1.0000      -7.731632      -210.3884
  27   1.0000      -7.731594      -210.3874
  28   1.0000      -7.664688      -208.5668
  29   1.0000      -7.664664      -208.5661
  30   1.0000      -7.664495      -208.5615
  31   1.0000      -7.664415      -208.5593
  32   1.0000      -5.699985      -155.1045
  33   1.0000      -5.699968      -155.1040
  34   1.0000      -5.696928      -155.0213
  35   1.0000      -5.696889      -155.0202
  36   1.0000      -5.696206      -155.0016
  37   1.0000      -5.696192      -155.0013
  38   1.0000      -5.693092      -154.9169
  39   1.0000      -5.693056      -154.9159
  40   1.0000      -5.689355      -154.8152
  41   1.0000      -5.689342      -154.8149
  42   1.0000      -5.686380      -154.7343
  43   1.0000      -5.686353      -154.7335
  44   1.0000      -5.629587      -153.1889
  45   1.0000      -5.629555      -153.1880
  46   1.0000      -5.629392      -153.1836
  47   1.0000      -5.629315      -153.1815
  48   1.0000      -5.623355      -153.0193
  49   1.0000      -5.623342      -153.0189
  50   1.0000      -5.623170      -153.0142
  51   1.0000      -5.623100      -153.0123
  52   1.0000      -5.622646      -153.0000
  53   1.0000      -5.622635      -152.9997
  54   1.0000      -5.622450      -152.9946
  55   1.0000      -5.622364      -152.9923
  56   1.0000      -2.363774       -64.3216
  57   1.0000      -1.430349       -38.9218
  58   1.0000      -1.376338       -37.4521
  59   1.0000      -1.375682       -37.4342
  60   1.0000      -0.677984       -18.4489
  61   1.0000      -0.655987       -17.8503
  62   1.0000      -0.624102       -16.9827
  63   1.0000      -0.601491       -16.3674
  64   1.0000      -0.598081       -16.2746
  65   1.0000      -0.571345       -15.5471
  66   1.0000      -0.568134       -15.4597
  67   1.0000      -0.492609       -13.4046
  68   1.0000      -0.489428       -13.3180
  69   1.0000      -0.488569       -13.2946
  70   1.0000      -0.486989       -13.2517
  71   1.0000      -0.427386       -11.6298
  72   1.0000      -0.423082       -11.5126
  73   1.0000      -0.405396       -11.0314
  74   1.0000      -0.397247       -10.8096
  75   1.0000      -0.374585       -10.1930
  76   1.0000      -0.372420       -10.1341
  77   1.0000      -0.305504        -8.3132
  78   1.0000      -0.304694        -8.2911
  79   1.0000      -0.298642        -8.1265
  80   1.0000      -0.288680        -7.8554
  81   1.0000      -0.259886        -7.0719
  82   1.0000      -0.257850        -7.0165
  83   1.0000      -0.251563        -6.8454
  84   1.0000      -0.245370        -6.6769
  85   1.0000      -0.191152        -5.2015
  86   1.0000      -0.187598        -5.1048
  87   1.0000      -0.183952        -5.0056
  88   1.0000      -0.179786        -4.8922
  89   1.0000      -0.178877        -4.8675
  90   1.0000      -0.172013        -4.6807
  91   1.0000      -0.164282        -4.4703
  92   1.0000      -0.149362        -4.0643
  93   1.0000      -0.146172        -3.9775
  94   1.0000      -0.143359        -3.9010
  95   1.0000      -0.143156        -3.8955
  96   1.0000      -0.141543        -3.8516
  97   1.0000      -0.095371        -2.5952
  98   1.0000      -0.093947        -2.5564
  99   1.0000      -0.086986        -2.3670
 100   1.0000      -0.082084        -2.2336
 101   1.0000      -0.080247        -2.1836
 102   1.0000      -0.079505        -2.1635
 103   1.0000      -0.070035        -1.9057
 104   1.0000      -0.043769        -1.1910
 105   1.0000      -0.038196        -1.0394
 106   1.0000      -0.037700        -1.0259
 107   1.0000      -0.035912        -0.9772
 108   1.0000      -0.033801        -0.9198
 109   1.0000      -0.011786        -0.3207
 110   1.0000      -0.003492        -0.0950
 111   1.0000      -0.002443        -0.0665
 112   1.0000       0.008745         0.2380
 113   1.0000       0.011719         0.3189
 114   1.0000       0.036525         0.9939
 115   1.0000       0.061580         1.6757
 116   0.0000       0.184705         5.0261
 117   0.0000       0.185748         5.0545
 118   0.0000       0.187438         5.1004
 119   0.0000       0.192228         5.2308
 120   0.0000       0.192855         5.2478

MULLIKEN ATOMIC CHARGES AND SPIN POPULATIONS
--------------------------------------------
   0 V :    0.449328    1.199902
   1 S :   -0.257699   -0.024459
   2 S :   -0.256045   -0.024196
   3 S :   -0.257802   -0.024386
   4 S :   -0.256329   -0.024123
   5 O :   -0.508549   -0.139127
   6 C :   -0.111895    0.008944
   7 C :   -0.109987    0.008965
   8 C :   -0.104433    0.009057
   9 C :   -0.104567    0.009001
  10 S :   -0.047123   -0.000160
  11 S :   -0.046993   -0.000197
  12 S :   -0.045378   -0.000218
  13 S :   -0.045484   -0.000254
  14 C :   -0.330203    0.000267
  15 C :   -0.321403    0.000219
  16 C :   -0.329286    0.000252
  17 C :   -0.320386    0.000241
  18 C :   -0.070252    0.000136
  19 H :    0.141918   -0.000088
  20 H :    0.087676    0.000025
  21 H :    0.050935    0.000055
  22 H :    0.076664    0.000013
  23 H :    0.087660    0.000026
  24 H :    0.142248   -0.000089
  25 C :   -0.058322    0.000197
  26 H :    0.068542    0.000031
  27 H :    0.135234   -0.000071
  28 H :    0.076443   -0.000010
  29 H :    0.061356    0.000086
  30 H :    0.135496   -0.000069
  31 H :    0.068638    0.000030
Sum of atomic charges         :   -2.0000000

LOEWDIN ATOMIC CHARGES AND SPIN POPULATIONS
-------------------------------------------
   0 V :   -0.241899    1.153661
   1 S :    0.083233   -0.016600
   2 S :    0.084971   -0.016392
   3 S :    0.083075   -0.016529
   4 S :    0.084705   -0.016357
   5 O :   -0.353221   -0.124561
   6 C :   -0.553495    0.010086
   7 C :   -0.552897    0.010040
   8 C :   -0.553000    0.010084
   9 C :   -0.553384    0.010110
  10 S :    0.329491   -0.001017
  11 S :    0.329257   -0.001039
  12 S :    0.322102   -0.001064
  13 S :    0.322059   -0.001082
  14 C :   -0.282309    0.000173
  15 C :   -0.271450    0.000185
  16 C :   -0.282412    0.000164
  17 C :   -0.271512    0.000198
  18 C :   -0.192983   -0.000035
  19 H :    0.066313   -0.000026
  20 H :    0.045377    0.000006
  21 H :    0.052322    0.000022
  22 H :    0.056757    0.000013
  23 H :    0.045383    0.000007
  24 H :    0.066465   -0.000026
  25 C :   -0.211758   -0.000028
  26 H :    0.045256    0.000008
  27 H :    0.069358   -0.000026
  28 H :    0.060656    0.000010
  29 H :    0.058916    0.000033
  30 H :    0.069403   -0.000025
  31 H :    0.045222    0.000007

  Mayer bond orders larger than 0.100000
B(  0-V ,  1-S ) :   0.7890 B(  0-V ,  2-S ) :   0.7907 B(  0-V ,  3-S ) :   0.7911
B(  0-V ,  4-S ) :   0.7881 B(  0-V ,  5-O ) :   2.1056 B(  1-S ,  8-C ) :   1.1289
B(  2-S ,  6-C ) :   1.1324 B(  3-S ,  9-C ) :   1.1282 B(  4-S ,  7-C ) :   1.1336
B(  6-C ,  7-C ) :   1.5396 B(  6-C , 10-S ) :   0.9494 B(  7-C , 11-S ) :   0.9491
B(  8-C ,  9-C ) :   1.5559 B(  8-C , 13-S ) :   0.9409 B(  9-C , 12-S ) :   0.9411
B( 10-S , 16-C ) :   1.0082 B( 11-S , 14-C ) :   1.0083 B( 12-S , 15-C ) :   1.0179
B( 13-S , 17-C ) :   1.0178 B( 14-C , 18-C ) :   0.8807 B( 14-C , 23-H ) :   0.9828
B( 14-C , 24-H ) :   0.9672 B( 15-C , 25-C ) :   0.8793 B( 15-C , 30-H ) :   0.9547
B( 15-C , 31-H ) :   0.9964 B( 16-C , 18-C ) :   0.8806 B( 16-C , 19-H ) :   0.9672
B( 16-C , 20-H ) :   0.9829 B( 17-C , 25-C ) :   0.8792 B( 17-C , 26-H ) :   0.9965
B( 17-C , 27-H ) :   0.9545 B( 18-C , 21-H ) :   0.9511 B( 18-C , 22-H ) :   0.9771
B( 25-C , 28-H ) :   0.9886 B( 25-C , 29-H ) :   0.9441

FINAL SINGLE POINT ENERGY     -4592.656097609395

DIPOLE MOMENT
-------------
                                X             Y             Z
Electronic contribution:    -14.46674      21.79526      -5.31592
Nuclear contribution   :     16.10203     -24.22759       5.94239
                        -----------------------------------------
Total Dipole Moment    :      1.63529      -2.43233       0.62647
                        -----------------------------------------
Magnitude (a.u.)       :      2.99714
Magnitude (Debye)      :      7.61814

Rotational constants in cm-1:     0.012831     0.002547     0.002436
Rotational constants in MHz :   384.669644    76.362090    73.026209

                             ****ORCA TERMINATED NORMALLY****
TOTAL RUN TIME: 0 days 0 hours 43 minutes 4 seconds 486 msec
