                         Program Version 5.0.4 -  RELEASE  -
|  1> ! nofrozencore ReducedPop printbasis
|  2> ! B3LYP TZVP
|  3>
|  4> %basis
|  5> newgto V "CP(PPP)" end
|  6> end
|  7>
|  8> %pal
|  9> nprocs 8
| 10> end
| 11>
| 12> % sym SymThresh 1e-2 end
| 13> * xyz -2 2
| 14> V 1.0633761349041742 0.048884718822172185 0.33347208179236965
| 15> S -0.26352048279767637 1.3581880102079709 1.9125392951422966
| 16> S 0.02864945032141404 -1.9263849642495963 1.369092641704119
| 17> S 0.6640656139546706 1.933766938027929 -1.1662384694864492
| 18> S 0.9816039923122883 -1.3543059388037764 -1.6860453851606128
| 19> O 2.585373315318055 0.10792509808801119 0.8123943981927892
| 20> C 0.2594526367992397 -3.2098275601307695 0.1919516059945153
| 21> C 0.6551897756269376 -2.9710057472783107 -1.0818009791649152
| 22> C -0.26979812751020077 2.9870347943413407 1.2050782307286831
| 23> C 0.11717514642355033 3.2274735500343215 -0.07884033755935488
| 24> S -0.060760701333668 -4.851532591814091 0.8331314431973417
| 25> S 0.9049308706207292 -4.265726866510605 -2.29439630824019
| 26> S 0.04291888931930025 4.882205558920296 -0.8170414580529857
| 27> S -0.8920653603648347 4.301577961665815 2.2888471222613633
| 28> C -0.8271772871156153 -4.913860108988951 -2.509755358843398
| 29> C -1.7570379478362481 5.225080060147175 -0.9499954279915093
| 30> C -1.5524412946013868 -5.35607546224311 -0.15990311499976015
| 31> C -2.507354428485761 4.759950022462103 1.544154695513653
| 32> C -1.3890072231425938 -5.9712704257319285 -1.5536826954712901
| 33> H -2.1298422168821496 -4.425400538211919 -0.27017609155731415
| 34> H -2.127992316093767 -6.024723240784323 0.5029717575372658
| 35> H -2.413270663458171 -6.216479554174613 -1.9158919082299888
| 36> H -0.8064636154749432 -6.910763832983004 -1.5506550971950963
| 37> H -0.8781998534379335 -5.259702260999133 -3.5564482590026802
| 38> H -1.4615069610534828 -4.017913708712623 -2.4280862806511614
| 39> C -2.3699947475962304 5.717818684996053 0.36082478890630715
| 40> H -3.032245413015051 5.290837279524861 2.3520372307291715
| 41> H -3.071690045195566 3.849124509915169 1.312791934820888
| 42> H -1.7459438011128792 6.55690874371895 0.70491415850618
| 43> H -3.3706921359910145 6.138326053153767 0.138348603234825
| 44> H -2.262680480444917 4.349069369885301 -1.372495141210353
| 45> H -1.8199230134675977 6.042556750770251 -1.6833167379378964
| 46> *
| 47>
| 48> % eprnmr
| 49> gtensor true
| 50> Nuclei = all H {aiso,adip,aorb,fgrad,rho}
| 51> Nuclei = all V {aiso,adip,aorb,fgrad,rho}
| 52> end
| 53>
| 54>                          ****END OF INPUT****

CARTESIAN COORDINATES (ANGSTROEM)
---------------------------------
  V      1.064511    0.048850    0.333818
  S     -0.262386    1.358153    1.912885
  S      0.029784   -1.926420    1.369439
  S      0.665200    1.933732   -1.165892
  S      0.982739   -1.354341   -1.685699
  O      2.586508    0.107890    0.812741
  C      0.260587   -3.209862    0.192298
  C      0.656324   -2.971041   -1.081455
  C     -0.268664    2.987000    1.205424
  C      0.118310    3.227439   -0.078494
  S     -0.059626   -4.851567    0.833478
  S      0.906065   -4.265762   -2.294050
  S      0.044054    4.882171   -0.816695
  S     -0.890931    4.301543    2.289193
  C     -0.826043   -4.913895   -2.509409
  C     -1.755903    5.225045   -0.949649
  C     -1.551307   -5.356110   -0.159557
  C     -2.506220    4.759915    1.544501
  C     -1.387873   -5.971305   -1.553337
  H     -2.128708   -4.425435   -0.269830
  H     -2.126858   -6.024758    0.503318
  H     -2.412136   -6.216514   -1.915546
  H     -0.805329   -6.910799   -1.550309
  H     -0.877065   -5.259737   -3.556102
  H     -1.460372   -4.017948   -2.427740
  C     -2.368860    5.717784    0.361171
  H     -3.031111    5.290803    2.352383
  H     -3.070555    3.849090    1.313138
  H     -1.744809    6.556874    0.705260
  H     -3.369558    6.138291    0.138695
  H     -2.261546    4.349035   -1.372149
  H     -1.818788    6.042522   -1.682971

 Total Charge           Charge          ....   -2
 Multiplicity           Mult            ....    2
 Number of Electrons    NEL             ....  233
 Basis Dimension        Dim             ....  517

ORBITAL ENERGIES
----------------
                 SPIN UP ORBITALS
  NO   OCC          E(Eh)            E(eV)
   0   1.0000    -196.640194     -5350.8517
   1   1.0000     -88.677501     -2413.0375
   2   1.0000     -88.677415     -2413.0351
   3   1.0000     -88.676138     -2413.0004
   4   1.0000     -88.676087     -2412.9990
   5   1.0000     -88.612860     -2411.2785
   6   1.0000     -88.612811     -2411.2772
   7   1.0000     -88.610922     -2411.2258
   8   1.0000     -88.610909     -2411.2254
   9   1.0000     -22.015998      -599.0858
  10   1.0000     -18.857245      -513.1317
  11   1.0000     -18.522827      -504.0318
  12   1.0000     -18.517046      -503.8744
  13   1.0000     -18.517009      -503.8734
  14   1.0000     -10.017715      -272.5959
  15   1.0000     -10.017708      -272.5957
  16   1.0000     -10.016127      -272.5527
  17   1.0000     -10.016115      -272.5523
  18   1.0000     -10.010327      -272.3948
  19   1.0000     -10.004509      -272.2365
  20   1.0000      -9.994135      -271.9542
  21   1.0000      -9.993436      -271.9352
  22   1.0000      -9.988823      -271.8097
  23   1.0000      -9.988078      -271.7894
  24   1.0000      -7.730982      -210.3707
  25   1.0000      -7.730918      -210.3690
  26   1.0000      -7.729898      -210.3412
  27   1.0000      -7.729867      -210.3404
  28   1.0000      -7.667140      -208.6335
  29   1.0000      -7.667083      -208.6319
  30   1.0000      -7.665639      -208.5926
  31   1.0000      -7.665616      -208.5920
  32   1.0000      -5.696242      -155.0026
  33   1.0000      -5.696185      -155.0011
  34   1.0000      -5.695136      -154.9725
  35   1.0000      -5.695106      -154.9717
  36   1.0000      -5.692325      -154.8960
  37   1.0000      -5.692252      -154.8940
  38   1.0000      -5.691266      -154.8672
  39   1.0000      -5.691232      -154.8663
  40   1.0000      -5.685748      -154.7171
  41   1.0000      -5.685678      -154.7152
  42   1.0000      -5.684621      -154.6864
  43   1.0000      -5.684590      -154.6856
  44   1.0000      -5.632037      -153.2555
  45   1.0000      -5.631980      -153.2540
  46   1.0000      -5.630398      -153.2109
  47   1.0000      -5.630369      -153.2101
  48   1.0000      -5.625577      -153.0797
  49   1.0000      -5.625522      -153.0782
  50   1.0000      -5.625089      -153.0664
  51   1.0000      -5.625038      -153.0651
  52   1.0000      -5.624052      -153.0382
  53   1.0000      -5.624048      -153.0381
  54   1.0000      -5.623658      -153.0275
  55   1.0000      -5.623635      -153.0269
  56   1.0000      -2.409679       -65.5707
  57   1.0000      -1.451049       -39.4851
  58   1.0000      -1.439451       -39.1694
  59   1.0000      -1.438366       -39.1399
  60   1.0000      -0.643960       -17.5230
  61   1.0000      -0.643349       -17.5064
  62   1.0000      -0.618280       -16.8243
  63   1.0000      -0.596337       -16.2272
  64   1.0000      -0.591308       -16.0903
  65   1.0000      -0.577918       -15.7259
  66   1.0000      -0.572475       -15.5778
  67   1.0000      -0.492323       -13.3968
  68   1.0000      -0.488533       -13.2937
  69   1.0000      -0.486995       -13.2518
  70   1.0000      -0.485723       -13.2172
  71   1.0000      -0.422634       -11.5005
  72   1.0000      -0.419463       -11.4142
  73   1.0000      -0.411973       -11.2104
  74   1.0000      -0.406612       -11.0645
  75   1.0000      -0.376512       -10.2454
  76   1.0000      -0.373113       -10.1529
  77   1.0000      -0.293678        -7.9914
  78   1.0000      -0.290532        -7.9058
  79   1.0000      -0.277226        -7.5437
  80   1.0000      -0.275601        -7.4995
  81   1.0000      -0.262224        -7.1355
  82   1.0000      -0.253505        -6.8982
  83   1.0000      -0.242686        -6.6038
  84   1.0000      -0.234350        -6.3770
  85   1.0000      -0.199027        -5.4158
  86   1.0000      -0.195963        -5.3324
  87   1.0000      -0.191739        -5.2175
  88   1.0000      -0.188598        -5.1320
  89   1.0000      -0.184618        -5.0237
  90   1.0000      -0.181304        -4.9335
  91   1.0000      -0.178884        -4.8677
  92   1.0000      -0.150924        -4.1069
  93   1.0000      -0.149971        -4.0809
  94   1.0000      -0.144184        -3.9235
  95   1.0000      -0.142004        -3.8641
  96   1.0000      -0.140991        -3.8365
  97   1.0000      -0.097475        -2.6524
  98   1.0000      -0.096414        -2.6236
  99   1.0000      -0.089949        -2.4476
 100   1.0000      -0.083815        -2.2807
 101   1.0000      -0.081758        -2.2247
 102   1.0000      -0.080119        -2.1801
 103   1.0000      -0.070001        -1.9048
 104   1.0000      -0.049976        -1.3599
 105   1.0000      -0.038649        -1.0517
 106   1.0000      -0.037997        -1.0340
 107   1.0000      -0.035474        -0.9653
 108   1.0000      -0.032270        -0.8781
 109   1.0000      -0.013136        -0.3574
 110   1.0000      -0.004581        -0.1247
 111   1.0000      -0.003142        -0.0855
 112   1.0000       0.006088         0.1657
 113   1.0000       0.010882         0.2961
 114   1.0000       0.016211         0.4411
 115   1.0000       0.033730         0.9178
 116   1.0000       0.060052         1.6341
 117   0.0000       0.187776         5.1096
 118   0.0000       0.195402         5.3171
 119   0.0000       0.195505         5.3200
 120   0.0000       0.195953         5.3321
 121   0.0000       0.211343         5.7509

                 SPIN DOWN ORBITALS
  NO   OCC          E(Eh)            E(eV)
   0   1.0000    -196.640335     -5350.8556
   1   1.0000     -88.677515     -2413.0379
   2   1.0000     -88.677429     -2413.0355
   3   1.0000     -88.676150     -2413.0007
   4   1.0000     -88.676100     -2412.9993
   5   1.0000     -88.613020     -2411.2829
   6   1.0000     -88.612972     -2411.2815
   7   1.0000     -88.611081     -2411.2301
   8   1.0000     -88.611068     -2411.2297
   9   1.0000     -22.001321      -598.6864
  10   1.0000     -18.860834      -513.2294
  11   1.0000     -18.517691      -503.8920
  12   1.0000     -18.501554      -503.4529
  13   1.0000     -18.500861      -503.4340
  14   1.0000     -10.017710      -272.5958
  15   1.0000     -10.017704      -272.5956
  16   1.0000     -10.016124      -272.5526
  17   1.0000     -10.016112      -272.5523
  18   1.0000     -10.010327      -272.3949
  19   1.0000     -10.004508      -272.2365
  20   1.0000      -9.993864      -271.9469
  21   1.0000      -9.993167      -271.9279
  22   1.0000      -9.988588      -271.8033
  23   1.0000      -9.987845      -271.7831
  24   1.0000      -7.730997      -210.3711
  25   1.0000      -7.730933      -210.3694
  26   1.0000      -7.729911      -210.3416
  27   1.0000      -7.729880      -210.3407
  28   1.0000      -7.667289      -208.6375
  29   1.0000      -7.667231      -208.6360
  30   1.0000      -7.665788      -208.5967
  31   1.0000      -7.665764      -208.5960
  32   1.0000      -5.696259      -155.0031
  33   1.0000      -5.696202      -155.0015
  34   1.0000      -5.695152      -154.9730
  35   1.0000      -5.695122      -154.9722
  36   1.0000      -5.692346      -154.8966
  37   1.0000      -5.692273      -154.8946
  38   1.0000      -5.691285      -154.8677
  39   1.0000      -5.691251      -154.8668
  40   1.0000      -5.685768      -154.7176
  41   1.0000      -5.685697      -154.7157
  42   1.0000      -5.684635      -154.6868
  43   1.0000      -5.684605      -154.6860
  44   1.0000      -5.632211      -153.2602
  45   1.0000      -5.632154      -153.2587
  46   1.0000      -5.630566      -153.2155
  47   1.0000      -5.630537      -153.2147
  48   1.0000      -5.625967      -153.0903
  49   1.0000      -5.625912      -153.0889
  50   1.0000      -5.625224      -153.0701
  51   1.0000      -5.625174      -153.0688
  52   1.0000      -5.624445      -153.0489
  53   1.0000      -5.624440      -153.0488
  54   1.0000      -5.623792      -153.0312
  55   1.0000      -5.623768      -153.0305
  56   1.0000      -2.365475       -64.3679
  57   1.0000      -1.432199       -38.9721
  58   1.0000      -1.378028       -37.4981
  59   1.0000      -1.377352       -37.4796
  60   1.0000      -0.643908       -17.5216
  61   1.0000      -0.643299       -17.5051
  62   1.0000      -0.625968       -17.0334
  63   1.0000      -0.596178       -16.2228
  64   1.0000      -0.591081       -16.0841
  65   1.0000      -0.577908       -15.7257
  66   1.0000      -0.572475       -15.5778
  67   1.0000      -0.492365       -13.3979
  68   1.0000      -0.488556       -13.2943
  69   1.0000      -0.487014       -13.2523
  70   1.0000      -0.485738       -13.2176
  71   1.0000      -0.422876       -11.5070
  72   1.0000      -0.419769       -11.4225
  73   1.0000      -0.411982       -11.2106
  74   1.0000      -0.406710       -11.0671
  75   1.0000      -0.376474       -10.2444
  76   1.0000      -0.373132       -10.1534
  77   1.0000      -0.293663        -7.9910
  78   1.0000      -0.290511        -7.9052
  79   1.0000      -0.277201        -7.5430
  80   1.0000      -0.275588        -7.4991
  81   1.0000      -0.262084        -7.1317
  82   1.0000      -0.253391        -6.8951
  83   1.0000      -0.242564        -6.6005
  84   1.0000      -0.234317        -6.3761
  85   1.0000      -0.198880        -5.4118
  86   1.0000      -0.195926        -5.3314
  87   1.0000      -0.191303        -5.2056
  88   1.0000      -0.188491        -5.1291
  89   1.0000      -0.184583        -5.0228
  90   1.0000      -0.180316        -4.9066
  91   1.0000      -0.177856        -4.8397
  92   1.0000      -0.150248        -4.0885
  93   1.0000      -0.149668        -4.0727
  94   1.0000      -0.143926        -3.9164
  95   1.0000      -0.141807        -3.8588
  96   1.0000      -0.140858        -3.8330
  97   1.0000      -0.095952        -2.6110
  98   1.0000      -0.095923        -2.6102
  99   1.0000      -0.090030        -2.4498
 100   1.0000      -0.083840        -2.2814
 101   1.0000      -0.082300        -2.2395
 102   1.0000      -0.081021        -2.2047
 103   1.0000      -0.071314        -1.9406
 104   1.0000      -0.045852        -1.2477
 105   1.0000      -0.038225        -1.0401
 106   1.0000      -0.037900        -1.0313
 107   1.0000      -0.034505        -0.9389
 108   1.0000      -0.032163        -0.8752
 109   1.0000      -0.012207        -0.3322
 110   1.0000      -0.005786        -0.1575
 111   1.0000      -0.002278        -0.0620
 112   1.0000       0.006942         0.1889
 113   1.0000       0.011793         0.3209
 114   1.0000       0.033986         0.9248
 115   1.0000       0.059246         1.6122
 116   0.0000       0.185373         5.0442
 117   0.0000       0.189017         5.1434
 118   0.0000       0.195556         5.3214
 119   0.0000       0.195932         5.3316
 120   0.0000       0.196257         5.3404

MULLIKEN ATOMIC CHARGES AND SPIN POPULATIONS
--------------------------------------------
   0 V :    0.447529    1.199670
   1 S :   -0.253244   -0.024514
   2 S :   -0.255493   -0.023691
   3 S :   -0.253448   -0.024439
   4 S :   -0.255745   -0.023602
   5 O :   -0.506553   -0.139025
   6 C :   -0.116318    0.007989
   7 C :   -0.114742    0.007972
   8 C :   -0.116515    0.009661
   9 C :   -0.116824    0.009580
  10 S :   -0.041411   -0.000262
  11 S :   -0.041444   -0.000295
  12 S :   -0.044314   -0.000090
  13 S :   -0.044506   -0.000118
  14 C :   -0.369994    0.000201
  15 C :   -0.309571    0.000371
  16 C :   -0.369923    0.000187
  17 C :   -0.308837    0.000391
  18 C :   -0.047688    0.000111
  19 H :    0.149251   -0.000082
  20 H :    0.106612    0.000014
  21 H :    0.050556    0.000032
  22 H :    0.076322    0.000031
  23 H :    0.106671    0.000014
  24 H :    0.149390   -0.000084
  25 C :   -0.119965    0.000099
  26 H :    0.095191    0.000037
  27 H :    0.144024   -0.000122
  28 H :    0.083006    0.000008
  29 H :    0.038457    0.000040
  30 H :    0.144414   -0.000119
  31 H :    0.095112    0.000035
Sum of atomic charges         :   -2.0000000

LOEWDIN ATOMIC CHARGES AND SPIN POPULATIONS
-------------------------------------------
   0 V :   -0.241897    1.153695
   1 S :    0.087786   -0.016450
   2 S :    0.089382   -0.016222
   3 S :    0.087573   -0.016378
   4 S :    0.089160   -0.016181
   5 O :   -0.350908   -0.124458
   6 C :   -0.565775    0.009208
   7 C :   -0.565205    0.009154
   8 C :   -0.544484    0.010624
   9 C :   -0.544859    0.010636
  10 S :    0.339259   -0.001124
  11 S :    0.339148   -0.001143
  12 S :    0.335282   -0.000942
  13 S :    0.335240   -0.000953
  14 C :   -0.298029    0.000130
  15 C :   -0.293646    0.000190
  16 C :   -0.298126    0.000123
  17 C :   -0.293693    0.000200
  18 C :   -0.178231   -0.000062
  19 H :    0.069787   -0.000027
  20 H :    0.046152    0.000002
  21 H :    0.053024    0.000010
  22 H :    0.053125    0.000009
  23 H :    0.046166    0.000003
  24 H :    0.069920   -0.000028
  25 C :   -0.193488   -0.000022
  26 H :    0.049449    0.000013
  27 H :    0.064547   -0.000028
  28 H :    0.055558    0.000014
  29 H :    0.043706    0.000023
  30 H :    0.064637   -0.000028
  31 H :    0.049440    0.000012

  Mayer bond orders larger than 0.100000
B(  0-V ,  1-S ) :   0.7925 B(  0-V ,  2-S ) :   0.7861 B(  0-V ,  3-S ) :   0.7945
B(  0-V ,  4-S ) :   0.7837 B(  0-V ,  5-O ) :   2.1083 B(  1-S ,  8-C ) :   1.1316
B(  2-S ,  6-C ) :   1.1440 B(  3-S ,  9-C ) :   1.1306 B(  4-S ,  7-C ) :   1.1449
B(  6-C ,  7-C ) :   1.4915 B(  6-C , 10-S ) :   0.9595 B(  7-C , 11-S ) :   0.9595
B(  8-C ,  9-C ) :   1.5327 B(  8-C , 13-S ) :   0.9492 B(  9-C , 12-S ) :   0.9493
B( 10-S , 16-C ) :   1.0082 B( 11-S , 14-C ) :   1.0077 B( 12-S , 15-C ) :   1.0088
B( 13-S , 17-C ) :   1.0091 B( 14-C , 18-C ) :   0.8755 B( 14-C , 23-H ) :   0.9671
B( 14-C , 24-H ) :   0.9824 B( 15-C , 25-C ) :   0.8794 B( 15-C , 30-H ) :   0.9672
B( 15-C , 31-H ) :   0.9717 B( 16-C , 18-C ) :   0.8750 B( 16-C , 19-H ) :   0.9824
B( 16-C , 20-H ) :   0.9670 B( 17-C , 25-C ) :   0.8796 B( 17-C , 26-H ) :   0.9718
B( 17-C , 27-H ) :   0.9670 B( 18-C , 21-H ) :   0.9634 B( 18-C , 22-H ) :   0.9590
B( 25-C , 28-H ) :   0.9832 B( 25-C , 29-H ) :   0.9416

FINAL SINGLE POINT ENERGY     -4592.716566613974

DIPOLE MOMENT
-------------
                                X             Y             Z
Electronic contribution:     25.56826       0.76422       7.92908
Nuclear contribution   :    -28.47916      -0.81622      -8.82620
                        -----------------------------------------
Total Dipole Moment    :     -2.91090      -0.05201      -0.89713
                        -----------------------------------------
Magnitude (a.u.)       :      3.04646
Magnitude (Debye)      :      7.74347

Rotational constants in cm-1:     0.012772     0.002548     0.002432
Rotational constants in MHz :   382.882376    76.396152    72.895045

                             ****ORCA TERMINATED NORMALLY****
TOTAL RUN TIME: 0 days 0 hours 28 minutes 0 seconds 605 msec
