                         Program Version 5.0.4 -  RELEASE  -
|  1> ! nofrozencore ReducedPop printbasis
|  2> ! B3LYP TZVP
|  3>
|  4> %basis
|  5> newgto V "CP(PPP)" end
|  6> end
|  7>
|  8> %pal
|  9> nprocs 4
| 10> end
| 11>
| 12> % sym SymThresh 1e-2 end
| 13> * xyz -2 2
| 14> V 0.4240499245903508 -1.0161230838267297 -0.17839988100717702
| 15> S 1.7530068797775638 0.5823442029720852 -1.476220923594547
| 16> S 1.5326430779513192 -0.07045178665183346 1.7899785928506158
| 17> S -1.2597779071208537 -0.5875956406227458 -1.9047308175827224
| 18> S -1.4684568121211437 -1.2691513252239437 1.3584971570100233
| 19> O 1.0343470340731173 -2.4684113699678947 -0.43811927664434763
| 20> C 0.5004493269702394 -0.5572164242959872 3.1403469171261684
| 21> C -0.7515837735078359 -1.0557508737181158 2.960213450628039
| 22> C 0.9064496679457649 0.6816510466892567 -3.024866858781962
| 23> C -0.3498658928638577 0.19378680490582662 -3.2038850443935982
| 24> S 1.2260659229544661 -0.31258404798695016 4.773871803916283
| 25> S -1.8218017451397739 -1.5199424115413538 4.336550625116295
| 26> S -1.2322340231725508 0.3262753651319177 -4.771997713060539
| 27> S 1.8247966658199457 1.5125624693634558 -4.337356124073689
| 28> C -2.2132328489593904 0.10579636056993509 5.145805217908103
| 29> C -1.5384619153432655 2.146171885856945 -4.930948272388342
| 30> C 0.2109100930012437 1.0650931842596842 5.49571397162141
| 31> C 0.874404320501499 3.0818932194710187 -4.589012664658148
| 32> C -1.1319688738711269 0.6229350862107967 6.125410112851912
| 33> H 0.066198424386644 1.662956510320985 4.831894093636654
| 34> H 0.6290963494108652 1.3661807777909256 6.010368918020133
| 35> H -1.523340334045798 1.438419155906572 6.600485259044767
| 36> H -0.9515194420362029 -0.09243305201557714 6.8373719569791
| 37> H -2.830139902966444 -0.0016604738906117488 5.507890262800952
| 38> H -2.348741457420755 0.7032499736072462 4.484104948626363
| 39> C -0.36496106010405965 2.967382994925952 -5.493454347737316
| 40> H 1.4593313991953876 3.6527344223944755 -4.957519891438755
| 41> H 0.6251483995344472 3.4187522754645814 -3.6906487925957228
| 42> H -0.07700521604027898 2.5663014092447582 -6.428260665955681
| 43> H -0.7201795201549946 3.947576462934518 -5.669025750708823
| 44> H -1.8002023365075646 2.4754991376306723 -4.036746194893048
| 45> H -2.2381984245801188 2.2177515484606376 -5.478098666895706
| 46> *
| 47>
| 48> % eprnmr
| 49> gtensor true
| 50> Nuclei = all H {aiso,adip,aorb,fgrad,rho}
| 51> Nuclei = all V {aiso,adip,aorb,fgrad,rho}
| 52> end
| 53>
| 54>                          ****END OF INPUT****

CARTESIAN COORDINATES (ANGSTROEM)
---------------------------------
  V      0.424501   -1.017216   -0.178509
  S      1.753458    0.581252   -1.476330
  S      1.533094   -0.071544    1.789870
  S     -1.259327   -0.588688   -1.904840
  S     -1.468006   -1.270244    1.358388
  O      1.034798   -2.469504   -0.438228
  C      0.500900   -0.558309    3.140238
  C     -0.751133   -1.056843    2.960105
  C      0.906900    0.680559   -3.024976
  C     -0.349415    0.192694   -3.203994
  S      1.226517   -0.313676    4.773763
  S     -1.821351   -1.521035    4.336442
  S     -1.231783    0.325183   -4.772107
  S      1.825247    1.511470   -4.337465
  C     -2.212782    0.104704    5.145696
  C     -1.538011    2.145079   -4.931057
  C      0.211361    1.064001    5.495605
  C      0.874855    3.080801   -4.589121
  C     -1.131518    0.621843    6.125301
  H      0.066649    1.661864    4.831785
  H      0.629547    1.365088    6.010260
  H     -1.522890    1.437327    6.600376
  H     -0.951069   -0.093525    6.837263
  H     -2.829689   -0.002753    5.507781
  H     -2.348291    0.702158    4.483996
  C     -0.364510    2.966291   -5.493563
  H      1.459782    3.651642   -4.957629
  H      0.625599    3.417660   -3.690758
  H     -0.076554    2.565209   -6.428369
  H     -0.719729    3.946484   -5.669135
  H     -1.799752    2.474407   -4.036855
  H     -2.237748    2.216659   -5.478207

 Total Charge           Charge          ....   -2
 Multiplicity           Mult            ....    2
 Number of Electrons    NEL             ....  233
 Basis Dimension        Dim             ....  517

ORBITAL ENERGIES
----------------
                 SPIN UP ORBITALS
  NO   OCC          E(Eh)            E(eV)
   0   1.0000    -196.637174     -5350.7695
   1   1.0000     -88.672857     -2412.9111
   2   1.0000     -88.672835     -2412.9105
   3   1.0000     -88.672175     -2412.8926
   4   1.0000     -88.672121     -2412.8911
   5   1.0000     -88.609055     -2411.1750
   6   1.0000     -88.609019     -2411.1740
   7   1.0000     -88.608840     -2411.1691
   8   1.0000     -88.608833     -2411.1689
   9   1.0000     -22.013029      -599.0050
  10   1.0000     -18.854303      -513.0517
  11   1.0000     -18.519870      -503.9513
  12   1.0000     -18.514069      -503.7934
  13   1.0000     -18.514031      -503.7924
  14   1.0000      -9.992255      -271.9031
  15   1.0000      -9.989097      -271.8171
  16   1.0000      -9.989088      -271.8169
  17   1.0000      -9.988377      -271.7976
  18   1.0000      -9.988375      -271.7975
  19   1.0000      -9.984306      -271.6868
  20   1.0000      -9.981537      -271.6114
  21   1.0000      -9.980644      -271.5871
  22   1.0000      -9.959241      -271.0047
  23   1.0000      -9.958835      -270.9937
  24   1.0000      -7.726565      -210.2505
  25   1.0000      -7.726556      -210.2503
  26   1.0000      -7.725861      -210.2314
  27   1.0000      -7.725800      -210.2297
  28   1.0000      -7.663545      -208.5357
  29   1.0000      -7.663479      -208.5339
  30   1.0000      -7.663321      -208.5296
  31   1.0000      -7.663289      -208.5287
  32   1.0000      -5.691757      -154.8806
  33   1.0000      -5.691756      -154.8805
  34   1.0000      -5.691028      -154.8607
  35   1.0000      -5.690965      -154.8590
  36   1.0000      -5.687918      -154.7761
  37   1.0000      -5.687915      -154.7760
  38   1.0000      -5.687239      -154.7577
  39   1.0000      -5.687182      -154.7561
  40   1.0000      -5.681379      -154.5982
  41   1.0000      -5.681359      -154.5976
  42   1.0000      -5.680686      -154.5793
  43   1.0000      -5.680631      -154.5778
  44   1.0000      -5.628385      -153.1561
  45   1.0000      -5.628314      -153.1542
  46   1.0000      -5.628170      -153.1503
  47   1.0000      -5.628145      -153.1496
  48   1.0000      -5.621979      -152.9818
  49   1.0000      -5.621924      -152.9803
  50   1.0000      -5.621759      -152.9758
  51   1.0000      -5.621738      -152.9753
  52   1.0000      -5.621499      -152.9688
  53   1.0000      -5.621457      -152.9676
  54   1.0000      -5.621276      -152.9627
  55   1.0000      -5.621257      -152.9622
  56   1.0000      -2.406703       -65.4897
  57   1.0000      -1.448093       -39.4046
  58   1.0000      -1.436467       -39.0882
  59   1.0000      -1.435397       -39.0591
  60   1.0000      -0.663851       -18.0643
  61   1.0000      -0.650506       -17.7012
  62   1.0000      -0.615492       -16.7484
  63   1.0000      -0.613097       -16.6832
  64   1.0000      -0.596904       -16.2426
  65   1.0000      -0.594221       -16.1696
  66   1.0000      -0.589806       -16.0494
  67   1.0000      -0.507973       -13.8226
  68   1.0000      -0.497858       -13.5474
  69   1.0000      -0.493873       -13.4390
  70   1.0000      -0.490077       -13.3357
  71   1.0000      -0.448048       -12.1920
  72   1.0000      -0.431171       -11.7328
  73   1.0000      -0.427459       -11.6318
  74   1.0000      -0.425997       -11.5920
  75   1.0000      -0.384853       -10.4724
  76   1.0000      -0.378194       -10.2912
  77   1.0000      -0.340042        -9.2530
  78   1.0000      -0.315933        -8.5970
  79   1.0000      -0.296459        -8.0671
  80   1.0000      -0.282242        -7.6802
  81   1.0000      -0.279838        -7.6148
  82   1.0000      -0.272757        -7.4221
  83   1.0000      -0.250468        -6.8156
  84   1.0000      -0.242371        -6.5952
  85   1.0000      -0.206804        -5.6274
  86   1.0000      -0.201903        -5.4941
  87   1.0000      -0.201171        -5.4741
  88   1.0000      -0.196272        -5.3408
  89   1.0000      -0.193356        -5.2615
  90   1.0000      -0.189236        -5.1494
  91   1.0000      -0.179357        -4.8806
  92   1.0000      -0.147701        -4.0191
  93   1.0000      -0.147517        -4.0141
  94   1.0000      -0.146523        -3.9871
  95   1.0000      -0.143897        -3.9156
  96   1.0000      -0.141252        -3.8437
  97   1.0000      -0.095838        -2.6079
  98   1.0000      -0.094472        -2.5707
  99   1.0000      -0.086212        -2.3460
 100   1.0000      -0.080389        -2.1875
 101   1.0000      -0.079437        -2.1616
 102   1.0000      -0.077450        -2.1075
 103   1.0000      -0.066258        -1.8030
 104   1.0000      -0.047591        -1.2950
 105   1.0000      -0.035456        -0.9648
 106   1.0000      -0.035147        -0.9564
 107   1.0000      -0.032146        -0.8747
 108   1.0000      -0.029443        -0.8012
 109   1.0000      -0.009883        -0.2689
 110   1.0000      -0.001330        -0.0362
 111   1.0000      -0.000437        -0.0119
 112   1.0000       0.009245         0.2516
 113   1.0000       0.013595         0.3699
 114   1.0000       0.019204         0.5226
 115   1.0000       0.036594         0.9958
 116   1.0000       0.062770         1.7081
 117   0.0000       0.192307         5.2329
 118   0.0000       0.200322         5.4510
 119   0.0000       0.204354         5.5608
 120   0.0000       0.207600         5.6491
 121   0.0000       0.215071         5.8524

                 SPIN DOWN ORBITALS
  NO   OCC          E(Eh)            E(eV)
   0   1.0000    -196.637316     -5350.7734
   1   1.0000     -88.672871     -2412.9115
   2   1.0000     -88.672848     -2412.9109
   3   1.0000     -88.672189     -2412.8929
   4   1.0000     -88.672134     -2412.8914
   5   1.0000     -88.609214     -2411.1793
   6   1.0000     -88.609179     -2411.1784
   7   1.0000     -88.609000     -2411.1735
   8   1.0000     -88.608993     -2411.1733
   9   1.0000     -21.998360      -598.6058
  10   1.0000     -18.857871      -513.1488
  11   1.0000     -18.514743      -503.8118
  12   1.0000     -18.498569      -503.3717
  13   1.0000     -18.497903      -503.3535
  14   1.0000      -9.992255      -271.9031
  15   1.0000      -9.988842      -271.8102
  16   1.0000      -9.988834      -271.8100
  17   1.0000      -9.988124      -271.7907
  18   1.0000      -9.988122      -271.7906
  19   1.0000      -9.984306      -271.6868
  20   1.0000      -9.981533      -271.6113
  21   1.0000      -9.980640      -271.5870
  22   1.0000      -9.959238      -271.0046
  23   1.0000      -9.958832      -270.9936
  24   1.0000      -7.726579      -210.2509
  25   1.0000      -7.726570      -210.2507
  26   1.0000      -7.725875      -210.2317
  27   1.0000      -7.725814      -210.2301
  28   1.0000      -7.663693      -208.5397
  29   1.0000      -7.663628      -208.5379
  30   1.0000      -7.663470      -208.5336
  31   1.0000      -7.663438      -208.5328
  32   1.0000      -5.691774      -154.8810
  33   1.0000      -5.691773      -154.8810
  34   1.0000      -5.691045      -154.8612
  35   1.0000      -5.690982      -154.8595
  36   1.0000      -5.687938      -154.7767
  37   1.0000      -5.687936      -154.7766
  38   1.0000      -5.687260      -154.7582
  39   1.0000      -5.687202      -154.7566
  40   1.0000      -5.681396      -154.5986
  41   1.0000      -5.681377      -154.5981
  42   1.0000      -5.680703      -154.5798
  43   1.0000      -5.680648      -154.5783
  44   1.0000      -5.628556      -153.1608
  45   1.0000      -5.628485      -153.1589
  46   1.0000      -5.628341      -153.1550
  47   1.0000      -5.628317      -153.1543
  48   1.0000      -5.622370      -152.9925
  49   1.0000      -5.622318      -152.9910
  50   1.0000      -5.622151      -152.9865
  51   1.0000      -5.622130      -152.9859
  52   1.0000      -5.621635      -152.9725
  53   1.0000      -5.621591      -152.9713
  54   1.0000      -5.621412      -152.9664
  55   1.0000      -5.621392      -152.9659
  56   1.0000      -2.362526       -64.2876
  57   1.0000      -1.429281       -38.8927
  58   1.0000      -1.375046       -37.4169
  59   1.0000      -1.374421       -37.3999
  60   1.0000      -0.663836       -18.0639
  61   1.0000      -0.650476       -17.7003
  62   1.0000      -0.623122       -16.9560
  63   1.0000      -0.613099       -16.6833
  64   1.0000      -0.596683       -16.2366
  65   1.0000      -0.594004       -16.1637
  66   1.0000      -0.589805       -16.0494
  67   1.0000      -0.507930       -13.8215
  68   1.0000      -0.497830       -13.5467
  69   1.0000      -0.493885       -13.4393
  70   1.0000      -0.490101       -13.3363
  71   1.0000      -0.448102       -12.1935
  72   1.0000      -0.431472       -11.7409
  73   1.0000      -0.427516       -11.6333
  74   1.0000      -0.426329       -11.6010
  75   1.0000      -0.384805       -10.4711
  76   1.0000      -0.378259       -10.2930
  77   1.0000      -0.340039        -9.2529
  78   1.0000      -0.315926        -8.5968
  79   1.0000      -0.296460        -8.0671
  80   1.0000      -0.282218        -7.6795
  81   1.0000      -0.279814        -7.6141
  82   1.0000      -0.272744        -7.4217
  83   1.0000      -0.250161        -6.8072
  84   1.0000      -0.242243        -6.5918
  85   1.0000      -0.206804        -5.6274
  86   1.0000      -0.201893        -5.4938
  87   1.0000      -0.201022        -5.4701
  88   1.0000      -0.196147        -5.3374
  89   1.0000      -0.193277        -5.2593
  90   1.0000      -0.189175        -5.1477
  91   1.0000      -0.177073        -4.8184
  92   1.0000      -0.147215        -4.0059
  93   1.0000      -0.147055        -4.0016
  94   1.0000      -0.146215        -3.9787
  95   1.0000      -0.143752        -3.9117
  96   1.0000      -0.141061        -3.8385
  97   1.0000      -0.095339        -2.5943
  98   1.0000      -0.092918        -2.5284
  99   1.0000      -0.086388        -2.3507
 100   1.0000      -0.079927        -2.1749
 101   1.0000      -0.079463        -2.1623
 102   1.0000      -0.079308        -2.1581
 103   1.0000      -0.067533        -1.8377
 104   1.0000      -0.043355        -1.1797
 105   1.0000      -0.035410        -0.9635
 106   1.0000      -0.034619        -0.9420
 107   1.0000      -0.031122        -0.8469
 108   1.0000      -0.029417        -0.8005
 109   1.0000      -0.008973        -0.2442
 110   1.0000      -0.002674        -0.0728
 111   1.0000       0.000585         0.0159
 112   1.0000       0.010091         0.2746
 113   1.0000       0.014495         0.3944
 114   1.0000       0.036847         1.0027
 115   1.0000       0.061981         1.6866
 116   0.0000       0.188288         5.1236
 117   0.0000       0.193717         5.2713
 118   0.0000       0.200925         5.4675
 119   0.0000       0.204754         5.5716
 120   0.0000       0.208283         5.6677

MULLIKEN ATOMIC CHARGES AND SPIN POPULATIONS
--------------------------------------------
   0 V :    0.448555    1.199110
   1 S :   -0.256810   -0.024199
   2 S :   -0.257066   -0.024145
   3 S :   -0.256977   -0.024117
   4 S :   -0.257319   -0.024072
   5 O :   -0.508350   -0.138440
   6 C :   -0.115121    0.008836
   7 C :   -0.113577    0.008850
   8 C :   -0.114116    0.008915
   9 C :   -0.114767    0.008852
  10 S :   -0.070443   -0.000184
  11 S :   -0.070361   -0.000219
  12 S :   -0.061482   -0.000207
  13 S :   -0.061365   -0.000238
  14 C :   -0.442608    0.000359
  15 C :   -0.377462    0.000338
  16 C :   -0.438457    0.000343
  17 C :   -0.375071    0.000357
  18 C :   -0.142535    0.000098
  19 H :    0.174701   -0.000116
  20 H :    0.222186    0.000005
  21 H :    0.052736    0.000016
  22 H :    0.088413    0.000015
  23 H :    0.223982    0.000003
  24 H :    0.176194   -0.000118
  25 C :   -0.118354    0.000105
  26 H :    0.156596    0.000023
  27 H :    0.159846   -0.000114
  28 H :    0.082686    0.000011
  29 H :    0.047298    0.000023
  30 H :    0.160678   -0.000111
  31 H :    0.158369    0.000022
Sum of atomic charges         :   -2.0000000

LOEWDIN ATOMIC CHARGES AND SPIN POPULATIONS
-------------------------------------------
   0 V :   -0.243350    1.153079
   1 S :    0.085746   -0.016384
   2 S :    0.085377   -0.016351
   3 S :    0.085547   -0.016311
   4 S :    0.085102   -0.016328
   5 O :   -0.352140   -0.123905
   6 C :   -0.550533    0.009981
   7 C :   -0.549952    0.009938
   8 C :   -0.551363    0.009947
   9 C :   -0.551702    0.009970
  10 S :    0.338270   -0.001047
  11 S :    0.338295   -0.001067
  12 S :    0.335183   -0.001057
  13 S :    0.335098   -0.001072
  14 C :   -0.161795    0.000160
  15 C :   -0.238340    0.000168
  16 C :   -0.164646    0.000152
  17 C :   -0.240292    0.000179
  18 C :   -0.119487   -0.000040
  19 H :    0.036103   -0.000006
  20 H :   -0.074770    0.000006
  21 H :    0.035158    0.000009
  22 H :    0.043554    0.000011
  23 H :   -0.077738    0.000007
  24 H :    0.035600   -0.000006
  25 C :   -0.153079   -0.000042
  26 H :    0.002366    0.000009
  27 H :    0.049855   -0.000015
  28 H :    0.047856    0.000010
  29 H :    0.040149    0.000013
  30 H :    0.049374   -0.000015
  31 H :    0.000556    0.000008

  Mayer bond orders larger than 0.100000
B(  0-V ,  1-S ) :   0.7879 B(  0-V ,  2-S ) :   0.7911 B(  0-V ,  3-S ) :   0.7900
B(  0-V ,  4-S ) :   0.7886 B(  0-V ,  5-O ) :   2.1066 B(  1-S ,  8-C ) :   1.1370
B(  2-S ,  6-C ) :   1.1356 B(  3-S ,  9-C ) :   1.1361 B(  4-S ,  7-C ) :   1.1367
B(  6-C ,  7-C ) :   1.5385 B(  6-C , 10-S ) :   0.9583 B(  7-C , 11-S ) :   0.9582
B(  8-C ,  9-C ) :   1.5309 B(  8-C , 13-S ) :   0.9551 B(  9-C , 12-S ) :   0.9554
B( 10-S , 16-C ) :   0.9654 B( 11-S , 14-C ) :   0.9646 B( 12-S , 15-C ) :   0.9912
B( 13-S , 17-C ) :   0.9917 B( 14-C , 18-C ) :   0.8500 B( 14-C , 23-H ) :   0.9680
B( 14-C , 24-H ) :   1.0001 B( 15-C , 25-C ) :   0.8698 B( 15-C , 30-H ) :   0.9889
B( 15-C , 31-H ) :   0.9748 B( 16-C , 18-C ) :   0.8508 B( 16-C , 19-H ) :   0.9998
B( 16-C , 20-H ) :   0.9684 B( 17-C , 25-C ) :   0.8706 B( 17-C , 26-H ) :   0.9749
B( 17-C , 27-H ) :   0.9885 B( 18-C , 21-H ) :   0.9650 B( 18-C , 22-H ) :   0.9881
B( 25-C , 28-H ) :   0.9824 B( 25-C , 29-H ) :   0.9589

FINAL SINGLE POINT ENERGY     -4592.201628696379

DIPOLE MOMENT
-------------
                                X             Y             Z
Electronic contribution:      9.77443     -23.51985      -4.00872
Nuclear contribution   :    -11.06774      26.60474       4.58815
                        -----------------------------------------
Total Dipole Moment    :     -1.29331       3.08489       0.57944
                        -----------------------------------------
Magnitude (a.u.)       :      3.39484
Magnitude (Debye)      :      8.62900

Rotational constants in cm-1:     0.012791     0.002549     0.002432
Rotational constants in MHz :   383.463772    76.427667    72.914125

                             ****ORCA TERMINATED NORMALLY****
TOTAL RUN TIME: 0 days 0 hours 43 minutes 4 seconds 960 msec
