                         Program Version 5.0.4 -  RELEASE  -
|  1> ! nofrozencore ReducedPop printbasis
|  2> ! B3LYP TZVP
|  3>
|  4> %basis
|  5> newgto V "CP(PPP)" end
|  6> end
|  7>
|  8> %pal
|  9> nprocs 4
| 10> end
| 11>
| 12> % sym SymThresh 1e-2 end
| 13> * xyz -2 2
| 14> V -0.7363488938089797 -0.779110645596037 0.3083625028148168
| 15> S -1.9041332017798034 1.3933793495498468 0.17391411863284936
| 16> S -0.6965267942437694 -0.6552308687319325 -2.1561231203301667
| 17> S 0.1983336136845801 0.16598184212521808 2.3428730139411167
| 18> S 1.3932402233902272 -1.9149624643264547 0.00645148024110401
| 19> O -1.8172019542438123 -1.876975481366282 0.7279225160415635
| 20> C 0.40770865117547794 -2.02954855333164 -2.5508010716908363
| 21> C 1.607375370101346 -2.1435783497081204 -1.7387051285344994
| 22> C -1.8981915408511536 1.8849282570626962 1.9150551237115114
| 23> C -0.6294274224232617 1.7108961241782075 2.6186932310760644
| 24> S 0.6167684070382374 -2.2355897092299823 -4.344505428277137
| 25> S 2.754230205768266 -3.5076211987394132 -2.1643283977632826
| 26> S -0.601353607620227 2.2515733834734095 4.371535678545726
| 27> S -2.7367773275131513 3.48031803706794 2.1640443830567664
| 28> C 3.831449054199316 -2.459137504829252 -3.2122878664844667
| 29> C 0.12416450808777194 3.8878692801287515 3.9836887259427622
| 30> C 2.1973303151886703 -1.4583103522951006 -4.948423168219225
| 31> C -1.5309496401203881 4.894752947282889 2.269936421913556
| 32> C 3.450777605834897 -2.2890166749979386 -4.6848755546421685
| 33> H 2.283553982353726 -0.4280047219885575 -4.5784539692955235
| 34> H 2.0116092848805756 -1.4239803616327202 -6.033969045044531
| 35> H 4.303024749423935 -1.803450608266776 -5.1890063074797155
| 36> H 3.3215499410963836 -3.2719511281231797 -5.151416542464904
| 37> H 4.86217787398406 -2.839395830778356 -3.1427987569382063
| 38> H 3.8101378155642367 -1.4816438955628288 -2.715832155678216
| 39> C -0.8308283680820804 5.0269684813120765 3.6198877759270403
| 40> H -2.2092924498550746 5.75309603614214 2.133427901901761
| 41> H -0.8299943254763007 4.868494486361694 1.4243203676925773
| 42> H -1.5945632831211207 5.134390382395983 4.398240798568971
| 43> H -0.24133091250160602 5.959038743489482 3.6171906006102907
| 44> H 0.7876132660440139 3.6842361338888923 3.1340997754827318
| 45> H 0.7595788952344947 4.199433053759697 4.8276732679414875
| 46> *
| 47>
| 48> % eprnmr
| 49> gtensor true
| 50> Nuclei = all H {aiso,adip,aorb,fgrad,rho}
| 51> Nuclei = all V {aiso,adip,aorb,fgrad,rho}
| 52> end
| 53>
| 54>                          ****END OF INPUT****

CARTESIAN COORDINATES (ANGSTROEM)
---------------------------------
  V     -0.737114   -0.779981    0.308620
  S     -1.904898    1.392509    0.174172
  S     -0.697292   -0.656101   -2.155865
  S      0.197569    0.165112    2.343131
  S      1.392475   -1.915833    0.006709
  O     -1.817967   -1.877846    0.728180
  C      0.406944   -2.030419   -2.550543
  C      1.606610   -2.144448   -1.738447
  C     -1.898956    1.884058    1.915313
  C     -0.630192    1.710026    2.618951
  S      0.616003   -2.236460   -4.344248
  S      2.753465   -3.508491   -2.164071
  S     -0.602119    2.250703    4.371794
  S     -2.737542    3.479448    2.164302
  C      3.830684   -2.460008   -3.212030
  C      0.123400    3.886999    3.983947
  C      2.196565   -1.459180   -4.948165
  C     -1.531715    4.893883    2.270194
  C      3.450013   -2.289887   -4.684618
  H      2.282789   -0.428875   -4.578196
  H      2.010844   -1.424850   -6.033711
  H      4.302260   -1.804321   -5.188748
  H      3.320785   -3.272821   -5.151159
  H      4.861413   -2.840266   -3.142541
  H      3.809373   -1.482514   -2.715574
  C     -0.831593    5.026098    3.620146
  H     -2.210057    5.752226    2.133686
  H     -0.830759    4.867624    1.424578
  H     -1.595328    5.133520    4.398499
  H     -0.242096    5.958169    3.617448
  H      0.786848    3.683366    3.134358
  H      0.758814    4.198563    4.827931

 Total Charge           Charge          ....   -2
 Multiplicity           Mult            ....    2
 Number of Electrons    NEL             ....  233
 Basis Dimension        Dim             ....  517

ORBITAL ENERGIES
----------------
                 SPIN UP ORBITALS
  NO   OCC          E(Eh)            E(eV)
   0   1.0000    -196.643637     -5350.9454
   1   1.0000     -88.677786     -2413.0452
   2   1.0000     -88.677367     -2413.0338
   3   1.0000     -88.671567     -2412.8760
   4   1.0000     -88.670974     -2412.8599
   5   1.0000     -88.619220     -2411.4516
   6   1.0000     -88.618887     -2411.4425
   7   1.0000     -88.617909     -2411.4159
   8   1.0000     -88.617907     -2411.4158
   9   1.0000     -22.019304      -599.1757
  10   1.0000     -18.862146      -513.2651
  11   1.0000     -18.526288      -504.1259
  12   1.0000     -18.520284      -503.9625
  13   1.0000     -18.520242      -503.9614
  14   1.0000     -10.018094      -272.6062
  15   1.0000     -10.017920      -272.6015
  16   1.0000     -10.012056      -272.4419
  17   1.0000     -10.011637      -272.4305
  18   1.0000     -10.006164      -272.2816
  19   1.0000     -10.005443      -272.2620
  20   1.0000     -10.004805      -272.2446
  21   1.0000     -10.004086      -272.2250
  22   1.0000     -10.003577      -272.2112
  23   1.0000     -10.003229      -272.2017
  24   1.0000      -7.731262      -210.3783
  25   1.0000      -7.730873      -210.3677
  26   1.0000      -7.725053      -210.2094
  27   1.0000      -7.724475      -210.1937
  28   1.0000      -7.673782      -208.8142
  29   1.0000      -7.673420      -208.8044
  30   1.0000      -7.671499      -208.7521
  31   1.0000      -7.671496      -208.7520
  32   1.0000      -5.696125      -154.9994
  33   1.0000      -5.695707      -154.9881
  34   1.0000      -5.693092      -154.9169
  35   1.0000      -5.692726      -154.9070
  36   1.0000      -5.690564      -154.8481
  37   1.0000      -5.689991      -154.8325
  38   1.0000      -5.686006      -154.7241
  39   1.0000      -5.685952      -154.7226
  40   1.0000      -5.685550      -154.7117
  41   1.0000      -5.685414      -154.7080
  42   1.0000      -5.679923      -154.5586
  43   1.0000      -5.679344      -154.5428
  44   1.0000      -5.638485      -153.4310
  45   1.0000      -5.638137      -153.4215
  46   1.0000      -5.636432      -153.3751
  47   1.0000      -5.636431      -153.3751
  48   1.0000      -5.632202      -153.2600
  49   1.0000      -5.631881      -153.2513
  50   1.0000      -5.631865      -153.2508
  51   1.0000      -5.631515      -153.2413
  52   1.0000      -5.630088      -153.2025
  53   1.0000      -5.630068      -153.2019
  54   1.0000      -5.629384      -153.1833
  55   1.0000      -5.629377      -153.1831
  56   1.0000      -2.413155       -65.6653
  57   1.0000      -1.454836       -39.5881
  58   1.0000      -1.442808       -39.2608
  59   1.0000      -1.441811       -39.2337
  60   1.0000      -0.640830       -17.4379
  61   1.0000      -0.640413       -17.4265
  62   1.0000      -0.622961       -16.9516
  63   1.0000      -0.587220       -15.9791
  64   1.0000      -0.586178       -15.9507
  65   1.0000      -0.572755       -15.5855
  66   1.0000      -0.572345       -15.5743
  67   1.0000      -0.489690       -13.3251
  68   1.0000      -0.487538       -13.2666
  69   1.0000      -0.484824       -13.1927
  70   1.0000      -0.483211       -13.1488
  71   1.0000      -0.421824       -11.4784
  72   1.0000      -0.418848       -11.3974
  73   1.0000      -0.406367       -11.0578
  74   1.0000      -0.401759       -10.9324
  75   1.0000      -0.365756        -9.9527
  76   1.0000      -0.361009        -9.8236
  77   1.0000      -0.287775        -7.8308
  78   1.0000      -0.286915        -7.8074
  79   1.0000      -0.276416        -7.5217
  80   1.0000      -0.275854        -7.5064
  81   1.0000      -0.260992        -7.1019
  82   1.0000      -0.255912        -6.9637
  83   1.0000      -0.240771        -6.5517
  84   1.0000      -0.238210        -6.4820
  85   1.0000      -0.192678        -5.2430
  86   1.0000      -0.191686        -5.2160
  87   1.0000      -0.189894        -5.1673
  88   1.0000      -0.187904        -5.1131
  89   1.0000      -0.179864        -4.8943
  90   1.0000      -0.177808        -4.8384
  91   1.0000      -0.175094        -4.7645
  92   1.0000      -0.150502        -4.0954
  93   1.0000      -0.148504        -4.0410
  94   1.0000      -0.145571        -3.9612
  95   1.0000      -0.134212        -3.6521
  96   1.0000      -0.128069        -3.4849
  97   1.0000      -0.104832        -2.8526
  98   1.0000      -0.098129        -2.6702
  99   1.0000      -0.096178        -2.6171
 100   1.0000      -0.085052        -2.3144
 101   1.0000      -0.079374        -2.1599
 102   1.0000      -0.077156        -2.0995
 103   1.0000      -0.067154        -1.8274
 104   1.0000      -0.051167        -1.3923
 105   1.0000      -0.041563        -1.1310
 106   1.0000      -0.035464        -0.9650
 107   1.0000      -0.032650        -0.8885
 108   1.0000      -0.031312        -0.8520
 109   1.0000      -0.016000        -0.4354
 110   1.0000      -0.009423        -0.2564
 111   1.0000      -0.000693        -0.0189
 112   1.0000       0.004310         0.1173
 113   1.0000       0.007596         0.2067
 114   1.0000       0.018655         0.5076
 115   1.0000       0.029691         0.8079
 116   1.0000       0.054414         1.4807
 117   0.0000       0.152904         4.1607
 118   0.0000       0.160779         4.3750
 119   0.0000       0.197570         5.3762
 120   0.0000       0.197812         5.3827
 121   0.0000       0.207343         5.6421

                 SPIN DOWN ORBITALS
  NO   OCC          E(Eh)            E(eV)
   0   1.0000    -196.643776     -5350.9492
   1   1.0000     -88.677801     -2413.0456
   2   1.0000     -88.677382     -2413.0342
   3   1.0000     -88.671580     -2412.8764
   4   1.0000     -88.670987     -2412.8602
   5   1.0000     -88.619362     -2411.4554
   6   1.0000     -88.619026     -2411.4463
   7   1.0000     -88.618070     -2411.4203
   8   1.0000     -88.618068     -2411.4202
   9   1.0000     -22.004678      -598.7777
  10   1.0000     -18.865637      -513.3601
  11   1.0000     -18.521206      -503.9876
  12   1.0000     -18.504828      -503.5420
  13   1.0000     -18.504129      -503.5229
  14   1.0000     -10.018092      -272.6061
  15   1.0000     -10.017916      -272.6014
  16   1.0000     -10.012052      -272.4418
  17   1.0000     -10.011633      -272.4304
  18   1.0000     -10.005899      -272.2743
  19   1.0000     -10.005173      -272.2546
  20   1.0000     -10.004574      -272.2383
  21   1.0000     -10.003863      -272.2189
  22   1.0000     -10.003577      -272.2112
  23   1.0000     -10.003228      -272.2017
  24   1.0000      -7.731278      -210.3788
  25   1.0000      -7.730888      -210.3682
  26   1.0000      -7.725066      -210.2097
  27   1.0000      -7.724489      -210.1940
  28   1.0000      -7.673914      -208.8178
  29   1.0000      -7.673550      -208.8079
  30   1.0000      -7.671650      -208.7562
  31   1.0000      -7.671646      -208.7561
  32   1.0000      -5.696146      -155.0000
  33   1.0000      -5.695729      -154.9887
  34   1.0000      -5.693116      -154.9176
  35   1.0000      -5.692751      -154.9076
  36   1.0000      -5.690578      -154.8485
  37   1.0000      -5.690006      -154.8329
  38   1.0000      -5.686025      -154.7246
  39   1.0000      -5.685967      -154.7230
  40   1.0000      -5.685564      -154.7121
  41   1.0000      -5.685433      -154.7085
  42   1.0000      -5.679941      -154.5590
  43   1.0000      -5.679363      -154.5433
  44   1.0000      -5.638650      -153.4355
  45   1.0000      -5.638299      -153.4259
  46   1.0000      -5.636597      -153.3796
  47   1.0000      -5.636594      -153.3795
  48   1.0000      -5.632481      -153.2676
  49   1.0000      -5.632155      -153.2587
  50   1.0000      -5.632057      -153.2561
  51   1.0000      -5.631670      -153.2455
  52   1.0000      -5.630522      -153.2143
  53   1.0000      -5.630502      -153.2138
  54   1.0000      -5.629494      -153.1863
  55   1.0000      -5.629478      -153.1859
  56   1.0000      -2.369160       -64.4681
  57   1.0000      -1.436215       -39.0814
  58   1.0000      -1.381721       -37.5985
  59   1.0000      -1.380902       -37.5763
  60   1.0000      -0.640791       -17.4368
  61   1.0000      -0.640372       -17.4254
  62   1.0000      -0.630424       -17.1547
  63   1.0000      -0.587014       -15.9735
  64   1.0000      -0.585967       -15.9450
  65   1.0000      -0.572742       -15.5851
  66   1.0000      -0.572328       -15.5738
  67   1.0000      -0.489688       -13.3251
  68   1.0000      -0.487555       -13.2671
  69   1.0000      -0.484842       -13.1932
  70   1.0000      -0.483241       -13.1497
  71   1.0000      -0.422053       -11.4847
  72   1.0000      -0.419137       -11.4053
  73   1.0000      -0.406357       -11.0575
  74   1.0000      -0.401831       -10.9344
  75   1.0000      -0.365671        -9.9504
  76   1.0000      -0.361025        -9.8240
  77   1.0000      -0.287745        -7.8299
  78   1.0000      -0.286902        -7.8070
  79   1.0000      -0.276378        -7.5206
  80   1.0000      -0.275831        -7.5058
  81   1.0000      -0.260757        -7.0956
  82   1.0000      -0.255845        -6.9619
  83   1.0000      -0.240668        -6.5489
  84   1.0000      -0.238122        -6.4796
  85   1.0000      -0.192552        -5.2396
  86   1.0000      -0.191657        -5.2152
  87   1.0000      -0.189682        -5.1615
  88   1.0000      -0.187868        -5.1121
  89   1.0000      -0.179472        -4.8837
  90   1.0000      -0.177672        -4.8347
  91   1.0000      -0.173157        -4.7119
  92   1.0000      -0.150269        -4.0890
  93   1.0000      -0.148077        -4.0294
  94   1.0000      -0.145193        -3.9509
  95   1.0000      -0.133712        -3.6385
  96   1.0000      -0.127890        -3.4801
  97   1.0000      -0.103426        -2.8144
  98   1.0000      -0.098100        -2.6694
  99   1.0000      -0.095891        -2.6093
 100   1.0000      -0.086591        -2.3562
 101   1.0000      -0.080198        -2.1823
 102   1.0000      -0.077054        -2.0968
 103   1.0000      -0.067258        -1.8302
 104   1.0000      -0.048298        -1.3142
 105   1.0000      -0.041592        -1.1318
 106   1.0000      -0.034692        -0.9440
 107   1.0000      -0.031863        -0.8670
 108   1.0000      -0.029390        -0.7997
 109   1.0000      -0.015056        -0.4097
 110   1.0000      -0.007460        -0.2030
 111   1.0000       0.000765         0.0208
 112   1.0000       0.004678         0.1273
 113   1.0000       0.009552         0.2599
 114   1.0000       0.029986         0.8160
 115   1.0000       0.053792         1.4637
 116   0.0000       0.152448         4.1483
 117   0.0000       0.161019         4.3815
 118   0.0000       0.184555         5.0220
 119   0.0000       0.197814         5.3828
 120   0.0000       0.198273         5.3953

MULLIKEN ATOMIC CHARGES AND SPIN POPULATIONS
--------------------------------------------
   0 V :    0.441481    1.193010
   1 S :   -0.260661   -0.027384
   2 S :   -0.260648   -0.027605
   3 S :   -0.228414   -0.019705
   4 S :   -0.230238   -0.019212
   5 O :   -0.502512   -0.136838
   6 C :   -0.057360    0.009747
   7 C :   -0.187031    0.009229
   8 C :   -0.054973    0.010191
   9 C :   -0.189901    0.009091
  10 S :   -0.069666   -0.000087
  11 S :   -0.040967   -0.000762
  12 S :   -0.041624   -0.000794
  13 S :   -0.071824   -0.000172
  14 C :   -0.325056    0.000460
  15 C :   -0.322923    0.000460
  16 C :   -0.298580    0.000230
  17 C :   -0.295807    0.000297
  18 C :   -0.106155   -0.000097
  19 H :    0.134627   -0.000087
  20 H :    0.095553   -0.000016
  21 H :    0.044306    0.000128
  22 H :    0.077539    0.000017
  23 H :    0.099932    0.000073
  24 H :    0.154388   -0.000099
  25 C :   -0.107410   -0.000089
  26 H :    0.094929   -0.000010
  27 H :    0.134199   -0.000095
  28 H :    0.077233    0.000012
  29 H :    0.044041    0.000130
  30 H :    0.154168   -0.000101
  31 H :    0.099353    0.000077
Sum of atomic charges         :   -2.0000000

LOEWDIN ATOMIC CHARGES AND SPIN POPULATIONS
-------------------------------------------
   0 V :   -0.252793    1.146662
   1 S :    0.078587   -0.018416
   2 S :    0.079042   -0.018709
   3 S :    0.116167   -0.012660
   4 S :    0.114325   -0.012264
   5 O :   -0.347407   -0.122236
   6 C :   -0.538549    0.009433
   7 C :   -0.545269    0.011195
   8 C :   -0.537102    0.009792
   9 C :   -0.544578    0.010995
  10 S :    0.316145   -0.000960
  11 S :    0.327449   -0.001256
  12 S :    0.326080   -0.001288
  13 S :    0.314686   -0.000984
  14 C :   -0.303196    0.000202
  15 C :   -0.303694    0.000193
  16 C :   -0.290822    0.000130
  17 C :   -0.291051    0.000184
  18 C :   -0.185529   -0.000031
  19 H :    0.062424   -0.000020
  20 H :    0.050018   -0.000003
  21 H :    0.046627    0.000033
  22 H :    0.053618    0.000017
  23 H :    0.044694    0.000018
  24 H :    0.069295   -0.000021
  25 C :   -0.185609   -0.000035
  26 H :    0.050076    0.000005
  27 H :    0.062329   -0.000021
  28 H :    0.053615    0.000015
  29 H :    0.046568    0.000035
  30 H :    0.069348   -0.000023
  31 H :    0.044504    0.000019

  Mayer bond orders larger than 0.100000
B(  0-V ,  1-S ) :   0.7834 B(  0-V ,  2-S ) :   0.7847 B(  0-V ,  3-S ) :   0.8037
B(  0-V ,  4-S ) :   0.8020 B(  0-V ,  5-O ) :   2.1066 B(  1-S ,  8-C ) :   1.0910
B(  2-S ,  6-C ) :   1.0917 B(  3-S ,  9-C ) :   1.1392 B(  4-S ,  7-C ) :   1.1394
B(  6-C ,  7-C ) :   1.5186 B(  6-C , 10-S ) :   0.9509 B(  7-C , 11-S ) :   0.9314
B(  8-C ,  9-C ) :   1.5140 B(  8-C , 13-S ) :   0.9498 B(  9-C , 12-S ) :   0.9308
B( 10-S , 16-C ) :   1.0002 B( 11-S , 14-C ) :   1.0063 B( 12-S , 15-C ) :   1.0058
B( 13-S , 17-C ) :   1.0000 B( 14-C , 18-C ) :   0.8717 B( 14-C , 23-H ) :   0.9590
B( 14-C , 24-H ) :   0.9943 B( 15-C , 25-C ) :   0.8719 B( 15-C , 30-H ) :   0.9950
B( 15-C , 31-H ) :   0.9587 B( 16-C , 18-C ) :   0.9101 B( 16-C , 19-H ) :   0.9646
B( 16-C , 20-H ) :   0.9761 B( 17-C , 25-C ) :   0.9112 B( 17-C , 26-H ) :   0.9762
B( 17-C , 27-H ) :   0.9643 B( 18-C , 21-H ) :   0.9559 B( 18-C , 22-H ) :   0.9688
B( 25-C , 28-H ) :   0.9687 B( 25-C , 29-H ) :   0.9558

FINAL SINGLE POINT ENERGY     -4592.642195483578

DIPOLE MOMENT
-------------
                                X             Y             Z
Electronic contribution:    -17.48469     -18.83149       7.55844
Nuclear contribution   :     19.59776      20.81428      -8.25137
                        -----------------------------------------
Total Dipole Moment    :      2.11307       1.98279      -0.69293
                        -----------------------------------------
Magnitude (a.u.)       :      2.97938
Magnitude (Debye)      :      7.57298

Rotational constants in cm-1:     0.012737     0.002547     0.002431
Rotational constants in MHz :   381.859570    76.359017    72.882288

                             ****ORCA TERMINATED NORMALLY****
TOTAL RUN TIME: 0 days 0 hours 43 minutes 8 seconds 928 msec
