                         Program Version 5.0.4 -  RELEASE  -
|  1> ! nofrozencore ReducedPop printbasis
|  2> ! B3LYP TZVP
|  3>
|  4> %basis
|  5> newgto V "CP(PPP)" end
|  6> end
|  7>
|  8> %pal
|  9> nprocs 4
| 10> end
| 11>
| 12> % sym SymThresh 1e-2 end
| 13> * xyz -2 2
| 14> V 0.9935542899440877 0.09888170710446789 -0.499661798354453
| 15> S 0.48679995005350823 -2.3312915259106077 -0.13507851331093937
| 16> S -0.7979832109399422 -0.09109309061335007 -2.234261691143069
| 17> S 1.4227016694476713 0.08172351019315688 1.8565898698478125
| 18> S 0.1482328436914456 2.3330125046275194 -0.27045343111111814
| 19> O 2.483852407461545 0.4309917656873017 -1.0444549709007214
| 20> C -1.220236706233949 1.6066802598063075 -2.5434258654045845
| 21> C -0.8687549975430059 2.5997520457152485 -1.6842265337915294
| 22> C 1.2168462826659179 -2.6339957465583423 1.4564171565151578
| 23> C 1.544538887640141 -1.6195035448471604 2.2999278251764417
| 24> S -2.212685894031648 1.9498574107876818 -4.01222461561647
| 25> S -1.370431022082971 4.325880619732571 -1.85844975337693
| 26> S 2.168006684206202 -1.8529444573353395 3.978466166503427
| 27> S 1.434776379212716 -4.356884754010694 1.9563400191979483
| 28> C -3.2161365545421874 4.313196180672472 -1.70310894512562
| 29> C 0.7956287566879898 -2.685387936175423 4.904113175766913
| 30> C -3.8463681025542855 2.320805660605405 -3.2303390486549324
| 31> C 0.0820659033054697 -4.5067401798276014 3.2083081642344045
| 32> C -4.0400396939156105 3.7975996432983004 -2.8863724571745557
| 33> H -3.921652451249759 1.682125271012136 -2.339391205712098
| 34> H -4.61869901248588 1.9997623812257672 -3.9462292582516296
| 35> H -5.10154176490575 3.961554051666398 -2.639244779049844
| 36> H -3.822731725538958 4.4010565714603915 -3.7760634582570574
| 37> H -3.4634590281888786 5.371479960165973 -1.5256602842593459
| 38> H -3.4657180282082463 3.7551453473534546 -0.7883797746124966
| 39> C 0.5288498405875216 -4.168380555063155 4.630395868314927
| 40> H -0.2753150625547006 -5.547924430139853 3.1668655367650036
| 41> H -0.734325342650666 -3.8530335485727387 2.8686476401510084
| 42> H 1.4261989358992346 -4.752851820532182 4.868629204400127
| 43> H -0.2588725299387964 -4.491294942317023 5.3302766629806015
| 44> H -0.11930879094564645 -2.0930584660096128 4.742366887447087
| 45> H 1.090931828459505 -2.5607885122939167 5.959211294574686
| 46> *
| 47>
| 48> % eprnmr
| 49> gtensor true
| 50> Nuclei = all H {aiso,adip,aorb,fgrad,rho}
| 51> Nuclei = all V {aiso,adip,aorb,fgrad,rho}
| 52> end
| 53>
| 54>                          ****END OF INPUT****

CARTESIAN COORDINATES (ANGSTROEM)
---------------------------------
  V      0.994573    0.099029   -0.500253
  S      0.487819   -2.331145   -0.135669
  S     -0.796964   -0.090946   -2.234852
  S      1.423721    0.081871    1.855999
  S      0.149252    2.333160   -0.271044
  O      2.484871    0.431139   -1.045046
  C     -1.219218    1.606827   -2.544017
  C     -0.867736    2.599899   -1.684817
  C      1.217865   -2.633849    1.455826
  C      1.545558   -1.619357    2.299337
  S     -2.211667    1.950004   -4.012815
  S     -1.369412    4.326028   -1.859041
  S      2.169026   -1.852797    3.977875
  S      1.435795   -4.356738    1.955749
  C     -3.215118    4.313343   -1.703700
  C      0.796648   -2.685241    4.903522
  C     -3.845349    2.320953   -3.230930
  C      0.083085   -4.506593    3.207717
  C     -4.039021    3.797747   -2.886963
  H     -3.920634    1.682272   -2.339982
  H     -4.617680    1.999909   -3.946820
  H     -5.100523    3.961701   -2.639836
  H     -3.821713    4.401204   -3.776654
  H     -3.462440    5.371627   -1.526251
  H     -3.464699    3.755292   -0.788971
  C      0.529869   -4.168234    4.629805
  H     -0.274296   -5.547777    3.166275
  H     -0.733306   -3.852887    2.868057
  H      1.427218   -4.752705    4.868038
  H     -0.257854   -4.491148    5.329686
  H     -0.118290   -2.092911    4.741776
  H      1.091951   -2.560641    5.958620

 Total Charge           Charge          ....   -2
 Multiplicity           Mult            ....    2
 Number of Electrons    NEL             ....  233
 Basis Dimension        Dim             ....  517

ORBITAL ENERGIES
----------------
                 SPIN UP ORBITALS
  NO   OCC          E(Eh)            E(eV)
   0   1.0000    -196.643067     -5350.9299
   1   1.0000     -88.678012     -2413.0514
   2   1.0000     -88.677672     -2413.0421
   3   1.0000     -88.676204     -2413.0022
   4   1.0000     -88.675965     -2412.9957
   5   1.0000     -88.612963     -2411.2813
   6   1.0000     -88.612942     -2411.2807
   7   1.0000     -88.612281     -2411.2627
   8   1.0000     -88.612237     -2411.2616
   9   1.0000     -22.018606      -599.1567
  10   1.0000     -18.854367      -513.0534
  11   1.0000     -18.525428      -504.1025
  12   1.0000     -18.519707      -503.9469
  13   1.0000     -18.519606      -503.9441
  14   1.0000     -10.019312      -272.6394
  15   1.0000     -10.019036      -272.6318
  16   1.0000     -10.015440      -272.5340
  17   1.0000     -10.015372      -272.5321
  18   1.0000     -10.005583      -272.2658
  19   1.0000     -10.005541      -272.2646
  20   1.0000      -9.993138      -271.9271
  21   1.0000      -9.992969      -271.9225
  22   1.0000      -9.990865      -271.8653
  23   1.0000      -9.990838      -271.8645
  24   1.0000      -7.731410      -210.3824
  25   1.0000      -7.731072      -210.3732
  26   1.0000      -7.729920      -210.3418
  27   1.0000      -7.729663      -210.3348
  28   1.0000      -7.667906      -208.6543
  29   1.0000      -7.667899      -208.6542
  30   1.0000      -7.666163      -208.6069
  31   1.0000      -7.666090      -208.6049
  32   1.0000      -5.696737      -155.0161
  33   1.0000      -5.696406      -155.0071
  34   1.0000      -5.695104      -154.9716
  35   1.0000      -5.694838      -154.9644
  36   1.0000      -5.692659      -154.9051
  37   1.0000      -5.692313      -154.8957
  38   1.0000      -5.691411      -154.8712
  39   1.0000      -5.691171      -154.8646
  40   1.0000      -5.686200      -154.7294
  41   1.0000      -5.685859      -154.7201
  42   1.0000      -5.684605      -154.6860
  43   1.0000      -5.684350      -154.6790
  44   1.0000      -5.632668      -153.2727
  45   1.0000      -5.632662      -153.2725
  46   1.0000      -5.631113      -153.2304
  47   1.0000      -5.631052      -153.2287
  48   1.0000      -5.626338      -153.1004
  49   1.0000      -5.626333      -153.1003
  50   1.0000      -5.625842      -153.0869
  51   1.0000      -5.625832      -153.0867
  52   1.0000      -5.624764      -153.0576
  53   1.0000      -5.624688      -153.0555
  54   1.0000      -5.624012      -153.0372
  55   1.0000      -5.623923      -153.0347
  56   1.0000      -2.411372       -65.6168
  57   1.0000      -1.450245       -39.4632
  58   1.0000      -1.441772       -39.2326
  59   1.0000      -1.440389       -39.1950
  60   1.0000      -0.643111       -17.4999
  61   1.0000      -0.642873       -17.4935
  62   1.0000      -0.614456       -16.7202
  63   1.0000      -0.593666       -16.1545
  64   1.0000      -0.593218       -16.1423
  65   1.0000      -0.574955       -15.6453
  66   1.0000      -0.574396       -15.6301
  67   1.0000      -0.491542       -13.3755
  68   1.0000      -0.489697       -13.3253
  69   1.0000      -0.486787       -13.2461
  70   1.0000      -0.485490       -13.2109
  71   1.0000      -0.423029       -11.5112
  72   1.0000      -0.420198       -11.4342
  73   1.0000      -0.412065       -11.2128
  74   1.0000      -0.406849       -11.0709
  75   1.0000      -0.376152       -10.2356
  76   1.0000      -0.373034       -10.1508
  77   1.0000      -0.291723        -7.9382
  78   1.0000      -0.291392        -7.9292
  79   1.0000      -0.277722        -7.5572
  80   1.0000      -0.277394        -7.5483
  81   1.0000      -0.259823        -7.0701
  82   1.0000      -0.254796        -6.9334
  83   1.0000      -0.241728        -6.5778
  84   1.0000      -0.239077        -6.5056
  85   1.0000      -0.194941        -5.3046
  86   1.0000      -0.192018        -5.2251
  87   1.0000      -0.191640        -5.2148
  88   1.0000      -0.190942        -5.1958
  89   1.0000      -0.184631        -5.0241
  90   1.0000      -0.184220        -5.0129
  91   1.0000      -0.181042        -4.9264
  92   1.0000      -0.150999        -4.1089
  93   1.0000      -0.149952        -4.0804
  94   1.0000      -0.143725        -3.9109
  95   1.0000      -0.142984        -3.8908
  96   1.0000      -0.141470        -3.8496
  97   1.0000      -0.097845        -2.6625
  98   1.0000      -0.093532        -2.5451
  99   1.0000      -0.088069        -2.3965
 100   1.0000      -0.083136        -2.2622
 101   1.0000      -0.082516        -2.2454
 102   1.0000      -0.073772        -2.0074
 103   1.0000      -0.065267        -1.7760
 104   1.0000      -0.050660        -1.3785
 105   1.0000      -0.040679        -1.1069
 106   1.0000      -0.037097        -1.0095
 107   1.0000      -0.034658        -0.9431
 108   1.0000      -0.031213        -0.8494
 109   1.0000      -0.014842        -0.4039
 110   1.0000      -0.004971        -0.1353
 111   1.0000      -0.002407        -0.0655
 112   1.0000       0.006729         0.1831
 113   1.0000       0.009950         0.2708
 114   1.0000       0.016556         0.4505
 115   1.0000       0.033583         0.9138
 116   1.0000       0.059983         1.6322
 117   0.0000       0.187256         5.0955
 118   0.0000       0.194399         5.2899
 119   0.0000       0.195716         5.3257
 120   0.0000       0.196198         5.3388
 121   0.0000       0.206182         5.6105

                 SPIN DOWN ORBITALS
  NO   OCC          E(Eh)            E(eV)
   0   1.0000    -196.643202     -5350.9336
   1   1.0000     -88.678029     -2413.0518
   2   1.0000     -88.677689     -2413.0426
   3   1.0000     -88.676213     -2413.0024
   4   1.0000     -88.675975     -2412.9959
   5   1.0000     -88.613137     -2411.2860
   6   1.0000     -88.613116     -2411.2855
   7   1.0000     -88.612435     -2411.2669
   8   1.0000     -88.612392     -2411.2658
   9   1.0000     -22.003747      -598.7524
  10   1.0000     -18.858225      -513.1584
  11   1.0000     -18.520094      -503.9574
  12   1.0000     -18.504128      -503.5229
  13   1.0000     -18.503286      -503.5000
  14   1.0000     -10.019303      -272.6391
  15   1.0000     -10.019026      -272.6316
  16   1.0000     -10.015438      -272.5339
  17   1.0000     -10.015371      -272.5321
  18   1.0000     -10.005583      -272.2658
  19   1.0000     -10.005541      -272.2646
  20   1.0000      -9.992840      -271.9190
  21   1.0000      -9.992663      -271.9142
  22   1.0000      -9.990669      -271.8599
  23   1.0000      -9.990636      -271.8590
  24   1.0000      -7.731427      -210.3828
  25   1.0000      -7.731090      -210.3736
  26   1.0000      -7.729931      -210.3421
  27   1.0000      -7.729673      -210.3351
  28   1.0000      -7.668067      -208.6587
  29   1.0000      -7.668060      -208.6585
  30   1.0000      -7.666308      -208.6108
  31   1.0000      -7.666235      -208.6089
  32   1.0000      -5.696757      -155.0166
  33   1.0000      -5.696426      -155.0076
  34   1.0000      -5.695118      -154.9720
  35   1.0000      -5.694852      -154.9648
  36   1.0000      -5.692682      -154.9058
  37   1.0000      -5.692335      -154.8963
  38   1.0000      -5.691429      -154.8717
  39   1.0000      -5.691189      -154.8651
  40   1.0000      -5.686227      -154.7301
  41   1.0000      -5.685886      -154.7208
  42   1.0000      -5.684612      -154.6862
  43   1.0000      -5.684357      -154.6792
  44   1.0000      -5.632863      -153.2780
  45   1.0000      -5.632856      -153.2778
  46   1.0000      -5.631266      -153.2345
  47   1.0000      -5.631204      -153.2328
  48   1.0000      -5.626742      -153.1114
  49   1.0000      -5.626738      -153.1113
  50   1.0000      -5.626001      -153.0913
  51   1.0000      -5.625991      -153.0910
  52   1.0000      -5.625142      -153.0679
  53   1.0000      -5.625069      -153.0659
  54   1.0000      -5.624154      -153.0410
  55   1.0000      -5.624063      -153.0385
  56   1.0000      -2.366584       -64.3980
  57   1.0000      -1.430569       -38.9278
  58   1.0000      -1.379909       -37.5492
  59   1.0000      -1.378883       -37.5213
  60   1.0000      -0.643059       -17.4985
  61   1.0000      -0.642819       -17.4920
  62   1.0000      -0.623028       -16.9534
  63   1.0000      -0.593494       -16.1498
  64   1.0000      -0.593011       -16.1366
  65   1.0000      -0.574947       -15.6451
  66   1.0000      -0.574388       -15.6299
  67   1.0000      -0.491560       -13.3760
  68   1.0000      -0.489724       -13.3261
  69   1.0000      -0.486816       -13.2469
  70   1.0000      -0.485536       -13.2121
  71   1.0000      -0.423281       -11.5181
  72   1.0000      -0.420516       -11.4428
  73   1.0000      -0.412089       -11.2135
  74   1.0000      -0.406960       -11.0739
  75   1.0000      -0.376119       -10.2347
  76   1.0000      -0.373073       -10.1518
  77   1.0000      -0.291702        -7.9376
  78   1.0000      -0.291379        -7.9288
  79   1.0000      -0.277698        -7.5565
  80   1.0000      -0.277380        -7.5479
  81   1.0000      -0.259599        -7.0641
  82   1.0000      -0.254753        -6.9322
  83   1.0000      -0.241623        -6.5749
  84   1.0000      -0.238999        -6.5035
  85   1.0000      -0.194523        -5.2932
  86   1.0000      -0.191956        -5.2234
  87   1.0000      -0.191592        -5.2135
  88   1.0000      -0.190918        -5.1951
  89   1.0000      -0.184543        -5.0217
  90   1.0000      -0.184156        -5.0112
  91   1.0000      -0.179023        -4.8715
  92   1.0000      -0.150360        -4.0915
  93   1.0000      -0.149617        -4.0713
  94   1.0000      -0.143518        -3.9053
  95   1.0000      -0.142671        -3.8823
  96   1.0000      -0.141412        -3.8480
  97   1.0000      -0.097234        -2.6459
  98   1.0000      -0.092284        -2.5112
  99   1.0000      -0.088024        -2.3953
 100   1.0000      -0.082938        -2.2569
 101   1.0000      -0.082804        -2.2532
 102   1.0000      -0.075822        -2.0632
 103   1.0000      -0.066853        -1.8192
 104   1.0000      -0.046476        -1.2647
 105   1.0000      -0.040271        -1.0958
 106   1.0000      -0.036261        -0.9867
 107   1.0000      -0.034682        -0.9437
 108   1.0000      -0.031055        -0.8450
 109   1.0000      -0.013955        -0.3797
 110   1.0000      -0.004854        -0.1321
 111   1.0000      -0.001394        -0.0379
 112   1.0000       0.007545         0.2053
 113   1.0000       0.011013         0.2997
 114   1.0000       0.033763         0.9187
 115   1.0000       0.059059         1.6071
 116   0.0000       0.182534         4.9670
 117   0.0000       0.190561         5.1854
 118   0.0000       0.195335         5.3153
 119   0.0000       0.195748         5.3266
 120   0.0000       0.196471         5.3463

MULLIKEN ATOMIC CHARGES AND SPIN POPULATIONS
--------------------------------------------
   0 V :    0.432960    1.213465
   1 S :   -0.282557   -0.024487
   2 S :   -0.280036   -0.024232
   3 S :   -0.216420   -0.025927
   4 S :   -0.217102   -0.025853
   5 O :   -0.511059   -0.149718
   6 C :   -0.096158    0.007497
   7 C :   -0.136415    0.010801
   8 C :   -0.092376    0.007262
   9 C :   -0.138842    0.011130
  10 S :   -0.048504    0.000270
  11 S :   -0.039533   -0.000762
  12 S :   -0.039118   -0.000724
  13 S :   -0.049121    0.000233
  14 C :   -0.327212    0.000408
  15 C :   -0.326081    0.000417
  16 C :   -0.348385    0.000010
  17 C :   -0.349061    0.000021
  18 C :   -0.085157    0.000157
  19 H :    0.160463   -0.000037
  20 H :    0.101477   -0.000019
  21 H :    0.045353    0.000027
  22 H :    0.079374    0.000013
  23 H :    0.098170    0.000050
  24 H :    0.133437   -0.000104
  25 C :   -0.085771    0.000166
  26 H :    0.101163   -0.000017
  27 H :    0.161714   -0.000038
  28 H :    0.079196    0.000009
  29 H :    0.045719    0.000029
  30 H :    0.132469   -0.000104
  31 H :    0.097411    0.000057
Sum of atomic charges         :   -2.0000000

LOEWDIN ATOMIC CHARGES AND SPIN POPULATIONS
-------------------------------------------
   0 V :   -0.235558    1.166043
   1 S :    0.053511   -0.017081
   2 S :    0.056298   -0.016884
   3 S :    0.126895   -0.017090
   4 S :    0.125812   -0.017123
   5 O :   -0.370796   -0.134652
   6 C :   -0.555135    0.008335
   7 C :   -0.549978    0.011798
   8 C :   -0.554090    0.008010
   9 C :   -0.550367    0.012136
  10 S :    0.332964   -0.000658
  11 S :    0.337452   -0.001466
  12 S :    0.337375   -0.001440
  13 S :    0.331816   -0.000665
  14 C :   -0.296502    0.000346
  15 C :   -0.297047    0.000357
  16 C :   -0.291721    0.000085
  17 C :   -0.291552    0.000084
  18 C :   -0.185589   -0.000043
  19 H :    0.072296   -0.000017
  20 H :    0.046896   -0.000022
  21 H :    0.046714    0.000009
  22 H :    0.053640    0.000010
  23 H :    0.049066    0.000035
  24 H :    0.062020   -0.000044
  25 C :   -0.185694   -0.000044
  26 H :    0.046862   -0.000022
  27 H :    0.072913   -0.000017
  28 H :    0.053606    0.000010
  29 H :    0.046743    0.000012
  30 H :    0.061827   -0.000044
  31 H :    0.049321    0.000040

  Mayer bond orders larger than 0.100000
B(  0-V ,  1-S ) :   0.7450 B(  0-V ,  2-S ) :   0.7513 B(  0-V ,  3-S ) :   0.8446
B(  0-V ,  4-S ) :   0.8408 B(  0-V ,  5-O ) :   2.1010 B(  1-S ,  8-C ) :   1.1339
B(  2-S ,  6-C ) :   1.1327 B(  3-S ,  9-C ) :   1.1401 B(  4-S ,  7-C ) :   1.1414
B(  6-C ,  7-C ) :   1.5175 B(  6-C , 10-S ) :   0.9421 B(  7-C , 11-S ) :   0.9658
B(  8-C ,  9-C ) :   1.5172 B(  8-C , 13-S ) :   0.9399 B(  9-C , 12-S ) :   0.9672
B( 10-S , 16-C ) :   0.9886 B( 11-S , 14-C ) :   1.0185 B( 12-S , 15-C ) :   1.0192
B( 13-S , 17-C ) :   0.9870 B( 14-C , 18-C ) :   0.8780 B( 14-C , 23-H ) :   0.9714
B( 14-C , 24-H ) :   0.9724 B( 15-C , 25-C ) :   0.8777 B( 15-C , 30-H ) :   0.9721
B( 15-C , 31-H ) :   0.9713 B( 16-C , 18-C ) :   0.8781 B( 16-C , 19-H ) :   0.9761
B( 16-C , 20-H ) :   0.9662 B( 17-C , 25-C ) :   0.8785 B( 17-C , 26-H ) :   0.9658
B( 17-C , 27-H ) :   0.9761 B( 18-C , 21-H ) :   0.9525 B( 18-C , 22-H ) :   0.9736
B( 25-C , 28-H ) :   0.9740 B( 25-C , 29-H ) :   0.9524

FINAL SINGLE POINT ENERGY     -4592.714864563633

DIPOLE MOMENT
-------------
                                X             Y             Z
Electronic contribution:     23.68637       2.25045     -12.06124
Nuclear contribution   :    -26.41371      -2.44783      13.49581
                        -----------------------------------------
Total Dipole Moment    :     -2.72733      -0.19738       1.43457
                        -----------------------------------------
Magnitude (a.u.)       :      3.08793
Magnitude (Debye)      :      7.84889

Rotational constants in cm-1:     0.012747     0.002548     0.002430
Rotational constants in MHz :   382.149865    76.391803    72.840555

                             ****ORCA TERMINATED NORMALLY****
TOTAL RUN TIME: 0 days 0 hours 43 minutes 19 seconds 697 msec
