                         Program Version 5.0.4 -  RELEASE  -
|  1> ! nofrozencore ReducedPop printbasis
|  2> ! B3LYP TZVP
|  3>
|  4> %basis
|  5> newgto V "CP(PPP)" end
|  6> end
|  7>
|  8> %pal
|  9> nprocs 4
| 10> end
| 11>
| 12> % sym SymThresh 1e-2 end
| 13> * xyz -2 2
| 14> V 0.8854134186268843 -0.14950268445029807 -0.06841436535266987
| 15> S 0.3116702362508345 0.06406470682374853 -2.4124694919227343
| 16> S 0.8545521469559548 2.2704992142607154 0.11293340559570898
| 17> S 0.04871055352719603 -2.421777225577435 -0.1814413911006416
| 18> S 0.6345684840345008 -0.22120330617350736 2.342148466189551
| 19> O 2.4393653823468133 -0.4159776612915161 -0.19303482971325642
| 20> C 0.8037254392585899 2.5053299665050286 1.8651646399740418
| 21> C 0.7090010929538618 1.4922201650226032 2.770788560831581
| 22> C -0.22538435265962234 -1.573107659447851 -2.8075549726061833
| 23> C -0.33034111505343333 -2.584777826734088 -1.9011250726167543
| 24> S 0.8510363805228306 4.264153331019 2.2651590780634283
| 25> S 0.6030599452476321 1.6916321719899439 4.561876920612009
| 26> S -0.9169249071862767 -4.254346389454387 -2.2555173008274307
| 27> S -0.6500792955586894 -1.6819057953210623 -4.559118232659177
| 28> C -0.9573800793490913 2.6426089876455383 4.792601123397768
| 29> C -2.6493914835915664 -3.976432743721868 -2.812340253723766
| 30> C -0.7786592560386116 4.551499985640871 3.071773309454256
| 31> C -2.449781308598164 -2.06889521854673 -4.533137009783242
| 32> C -0.8676902834486228 4.149729072468424 4.545383336495636
| 33> H -1.541190993217113 4.038433009222528 2.477553780926729
| 34> H -0.9470261334540064 5.629387734131079 2.9728757120360263
| 35> H -1.7753264376164026 4.620237182803955 4.975135651577254
| 36> H -0.001168158628157402 4.559569131657993 5.08876411901662
| 37> H -1.2343390866935515 2.458178103892227 5.83581864485518
| 38> H -1.7239709064672446 2.1865244375275474 4.158687985664391
| 39> C -2.8156135617448803 -3.5302033456114192 -4.266291656873947
| 40> H -2.8025384744715685 -1.77852131970934 -5.528409952133698
| 41> H -2.9251606296102324 -1.4048091013305521 -3.8045367837162662
| 42> H -2.214779244075538 -4.183496789349606 -4.919968148497683
| 43> H -3.878695269528214 -3.673078403170776 -4.549397212661681
| 44> H -3.1110943303217153 -3.260224730941368 -2.125408644636454
| 45> H -3.1413866112288007 -4.94407589703918 -2.6659694697047187
| 46> *
| 47>
| 48> % eprnmr
| 49> gtensor true
| 50> Nuclei = all H {aiso,adip,aorb,fgrad,rho}
| 51> Nuclei = all V {aiso,adip,aorb,fgrad,rho}
| 52> end
| 53>
| 54>                          ****END OF INPUT****

CARTESIAN COORDINATES (ANGSTROEM)
---------------------------------
  V      0.886592   -0.149641   -0.068447
  S      0.312849    0.063927   -2.412502
  S      0.855730    2.270361    0.112901
  S      0.049889   -2.421915   -0.181474
  S      0.635747   -0.221341    2.342116
  O      2.440544   -0.416116   -0.193068
  C      0.804904    2.505192    1.865132
  C      0.710179    1.492082    2.770756
  C     -0.224206   -1.573246   -2.807588
  C     -0.329163   -2.584916   -1.901158
  S      0.852215    4.264015    2.265126
  S      0.604238    1.691494    4.561844
  S     -0.915747   -4.254485   -2.255550
  S     -0.648901   -1.682044   -4.559151
  C     -0.956202    2.642471    4.792568
  C     -2.648213   -3.976571   -2.812373
  C     -0.777481    4.551362    3.071741
  C     -2.448603   -2.069033   -4.533170
  C     -0.866512    4.149591    4.545351
  H     -1.540013    4.038295    2.477521
  H     -0.945848    5.629250    2.972843
  H     -1.774148    4.620099    4.975103
  H      0.000010    4.559431    5.088731
  H     -1.233161    2.458040    5.835786
  H     -1.722793    2.186386    4.158655
  C     -2.814435   -3.530342   -4.266324
  H     -2.801360   -1.778660   -5.528443
  H     -2.923982   -1.404947   -3.804569
  H     -2.213601   -4.183635   -4.920001
  H     -3.877517   -3.673217   -4.549430
  H     -3.109916   -3.260363   -2.125441
  H     -3.140208   -4.944214   -2.666002

 Total Charge           Charge          ....   -2
 Multiplicity           Mult            ....    2
 Number of Electrons    NEL             ....  233
 Basis Dimension        Dim             ....  517

ORBITAL ENERGIES
----------------
                 SPIN UP ORBITALS
  NO   OCC          E(Eh)            E(eV)
   0   1.0000    -196.633150     -5350.6600
   1   1.0000     -88.675607     -2412.9859
   2   1.0000     -88.675571     -2412.9850
   3   1.0000     -88.675506     -2412.9832
   4   1.0000     -88.675396     -2412.9802
   5   1.0000     -88.608372     -2411.1564
   6   1.0000     -88.608357     -2411.1560
   7   1.0000     -88.608118     -2411.1495
   8   1.0000     -88.608117     -2411.1494
   9   1.0000     -22.009204      -598.9009
  10   1.0000     -18.855914      -513.0955
  11   1.0000     -18.516040      -503.8471
  12   1.0000     -18.510221      -503.6887
  13   1.0000     -18.510103      -503.6855
  14   1.0000     -10.014907      -272.5195
  15   1.0000     -10.014855      -272.5181
  16   1.0000     -10.014735      -272.5148
  17   1.0000     -10.014713      -272.5142
  18   1.0000     -10.003950      -272.2213
  19   1.0000     -10.003901      -272.2200
  20   1.0000      -9.991495      -271.8824
  21   1.0000      -9.991461      -271.8815
  22   1.0000      -9.990783      -271.8630
  23   1.0000      -9.990715      -271.8612
  24   1.0000      -7.729331      -210.3258
  25   1.0000      -7.729317      -210.3254
  26   1.0000      -7.729269      -210.3241
  27   1.0000      -7.729178      -210.3216
  28   1.0000      -7.663201      -208.5263
  29   1.0000      -7.663179      -208.5257
  30   1.0000      -7.663023      -208.5214
  31   1.0000      -7.663008      -208.5211
  32   1.0000      -5.694604      -154.9580
  33   1.0000      -5.694586      -154.9576
  34   1.0000      -5.694530      -154.9561
  35   1.0000      -5.694436      -154.9535
  36   1.0000      -5.690636      -154.8501
  37   1.0000      -5.690626      -154.8498
  38   1.0000      -5.690589      -154.8488
  39   1.0000      -5.690501      -154.8464
  40   1.0000      -5.684078      -154.6716
  41   1.0000      -5.684056      -154.6710
  42   1.0000      -5.684009      -154.6698
  43   1.0000      -5.683914      -154.6672
  44   1.0000      -5.628094      -153.1482
  45   1.0000      -5.628072      -153.1476
  46   1.0000      -5.627908      -153.1432
  47   1.0000      -5.627904      -153.1430
  48   1.0000      -5.621671      -152.9734
  49   1.0000      -5.621649      -152.9728
  50   1.0000      -5.621502      -152.9688
  51   1.0000      -5.621500      -152.9688
  52   1.0000      -5.621019      -152.9557
  53   1.0000      -5.621008      -152.9554
  54   1.0000      -5.620814      -152.9501
  55   1.0000      -5.620788      -152.9494
  56   1.0000      -2.404524       -65.4304
  57   1.0000      -1.448467       -39.4148
  58   1.0000      -1.434076       -39.0232
  59   1.0000      -1.432768       -38.9876
  60   1.0000      -0.642052       -17.4711
  61   1.0000      -0.641976       -17.4691
  62   1.0000      -0.616439       -16.7742
  63   1.0000      -0.590686       -16.0734
  64   1.0000      -0.590203       -16.0603
  65   1.0000      -0.577318       -15.7096
  66   1.0000      -0.577151       -15.7051
  67   1.0000      -0.489319       -13.3150
  68   1.0000      -0.488603       -13.2956
  69   1.0000      -0.487048       -13.2533
  70   1.0000      -0.485211       -13.2033
  71   1.0000      -0.419508       -11.4154
  72   1.0000      -0.417567       -11.3626
  73   1.0000      -0.409567       -11.1449
  74   1.0000      -0.404245       -11.0001
  75   1.0000      -0.378410       -10.2971
  76   1.0000      -0.375624       -10.2212
  77   1.0000      -0.291288        -7.9263
  78   1.0000      -0.291162        -7.9229
  79   1.0000      -0.276707        -7.5296
  80   1.0000      -0.276211        -7.5161
  81   1.0000      -0.258972        -7.0470
  82   1.0000      -0.255149        -6.9430
  83   1.0000      -0.240983        -6.5575
  84   1.0000      -0.238756        -6.4969
  85   1.0000      -0.193175        -5.2566
  86   1.0000      -0.192589        -5.2406
  87   1.0000      -0.191872        -5.2211
  88   1.0000      -0.188779        -5.1370
  89   1.0000      -0.184231        -5.0132
  90   1.0000      -0.183513        -4.9936
  91   1.0000      -0.175513        -4.7760
  92   1.0000      -0.148242        -4.0339
  93   1.0000      -0.146909        -3.9976
  94   1.0000      -0.142282        -3.8717
  95   1.0000      -0.141895        -3.8612
  96   1.0000      -0.141372        -3.8469
  97   1.0000      -0.095421        -2.5965
  98   1.0000      -0.093306        -2.5390
  99   1.0000      -0.091367        -2.4862
 100   1.0000      -0.084346        -2.2952
 101   1.0000      -0.082770        -2.2523
 102   1.0000      -0.079950        -2.1755
 103   1.0000      -0.068125        -1.8538
 104   1.0000      -0.052203        -1.4205
 105   1.0000      -0.043517        -1.1841
 106   1.0000      -0.037471        -1.0196
 107   1.0000      -0.036539        -0.9943
 108   1.0000      -0.025483        -0.6934
 109   1.0000      -0.008190        -0.2229
 110   1.0000      -0.007693        -0.2093
 111   1.0000       0.000259         0.0071
 112   1.0000       0.004045         0.1101
 113   1.0000       0.019465         0.5297
 114   1.0000       0.020389         0.5548
 115   1.0000       0.040245         1.0951
 116   1.0000       0.063186         1.7194
 117   0.0000       0.188430         5.1274
 118   0.0000       0.198102         5.3906
 119   0.0000       0.198549         5.4028
 120   0.0000       0.200451         5.4546
 121   0.0000       0.211393         5.7523

                 SPIN DOWN ORBITALS
  NO   OCC          E(Eh)            E(eV)
   0   1.0000    -196.633290     -5350.6638
   1   1.0000     -88.675617     -2412.9862
   2   1.0000     -88.675581     -2412.9852
   3   1.0000     -88.675516     -2412.9835
   4   1.0000     -88.675406     -2412.9805
   5   1.0000     -88.608522     -2411.1605
   6   1.0000     -88.608508     -2411.1601
   7   1.0000     -88.608268     -2411.1536
   8   1.0000     -88.608267     -2411.1535
   9   1.0000     -21.994731      -598.5071
  10   1.0000     -18.859700      -513.1985
  11   1.0000     -18.510942      -503.7083
  12   1.0000     -18.494911      -503.2721
  13   1.0000     -18.494250      -503.2541
  14   1.0000     -10.014906      -272.5195
  15   1.0000     -10.014854      -272.5180
  16   1.0000     -10.014734      -272.5148
  17   1.0000     -10.014713      -272.5142
  18   1.0000     -10.003951      -272.2213
  19   1.0000     -10.003901      -272.2200
  20   1.0000      -9.991199      -271.8743
  21   1.0000      -9.991167      -271.8735
  22   1.0000      -9.990489      -271.8550
  23   1.0000      -9.990424      -271.8532
  24   1.0000      -7.729343      -210.3261
  25   1.0000      -7.729328      -210.3257
  26   1.0000      -7.729281      -210.3244
  27   1.0000      -7.729189      -210.3219
  28   1.0000      -7.663341      -208.5301
  29   1.0000      -7.663318      -208.5295
  30   1.0000      -7.663162      -208.5252
  31   1.0000      -7.663146      -208.5248
  32   1.0000      -5.694617      -154.9584
  33   1.0000      -5.694599      -154.9579
  34   1.0000      -5.694544      -154.9564
  35   1.0000      -5.694449      -154.9538
  36   1.0000      -5.690652      -154.8505
  37   1.0000      -5.690641      -154.8502
  38   1.0000      -5.690604      -154.8492
  39   1.0000      -5.690516      -154.8468
  40   1.0000      -5.684090      -154.6719
  41   1.0000      -5.684068      -154.6713
  42   1.0000      -5.684020      -154.6700
  43   1.0000      -5.683924      -154.6674
  44   1.0000      -5.628266      -153.1529
  45   1.0000      -5.628242      -153.1523
  46   1.0000      -5.628079      -153.1478
  47   1.0000      -5.628074      -153.1477
  48   1.0000      -5.621998      -152.9824
  49   1.0000      -5.621976      -152.9817
  50   1.0000      -5.621825      -152.9776
  51   1.0000      -5.621821      -152.9775
  52   1.0000      -5.621180      -152.9601
  53   1.0000      -5.621165      -152.9597
  54   1.0000      -5.620979      -152.9546
  55   1.0000      -5.620949      -152.9538
  56   1.0000      -2.360892       -64.2431
  57   1.0000      -1.429784       -38.9064
  58   1.0000      -1.373554       -37.3763
  59   1.0000      -1.372513       -37.3480
  60   1.0000      -0.641995       -17.4696
  61   1.0000      -0.641915       -17.4674
  62   1.0000      -0.624528       -16.9943
  63   1.0000      -0.590436       -16.0666
  64   1.0000      -0.589925       -16.0527
  65   1.0000      -0.577295       -15.7090
  66   1.0000      -0.577129       -15.7045
  67   1.0000      -0.489238       -13.3129
  68   1.0000      -0.488546       -13.2940
  69   1.0000      -0.486990       -13.2517
  70   1.0000      -0.485178       -13.2024
  71   1.0000      -0.419685       -11.4202
  72   1.0000      -0.417806       -11.3691
  73   1.0000      -0.409491       -11.1428
  74   1.0000      -0.404294       -11.0014
  75   1.0000      -0.378330       -10.2949
  76   1.0000      -0.375618       -10.2211
  77   1.0000      -0.291257        -7.9255
  78   1.0000      -0.291146        -7.9225
  79   1.0000      -0.276664        -7.5284
  80   1.0000      -0.276194        -7.5156
  81   1.0000      -0.258749        -7.0409
  82   1.0000      -0.255062        -6.9406
  83   1.0000      -0.240878        -6.5546
  84   1.0000      -0.238664        -6.4944
  85   1.0000      -0.192556        -5.2397
  86   1.0000      -0.192485        -5.2378
  87   1.0000      -0.191850        -5.2205
  88   1.0000      -0.188701        -5.1348
  89   1.0000      -0.184137        -5.0106
  90   1.0000      -0.183446        -4.9918
  91   1.0000      -0.172972        -4.7068
  92   1.0000      -0.147560        -4.0153
  93   1.0000      -0.146631        -3.9900
  94   1.0000      -0.141985        -3.8636
  95   1.0000      -0.141659        -3.8547
  96   1.0000      -0.141224        -3.8429
  97   1.0000      -0.094042        -2.5590
  98   1.0000      -0.093224        -2.5368
  99   1.0000      -0.091599        -2.4925
 100   1.0000      -0.084534        -2.3003
 101   1.0000      -0.084132        -2.2893
 102   1.0000      -0.079433        -2.1615
 103   1.0000      -0.069882        -1.9016
 104   1.0000      -0.048191        -1.3113
 105   1.0000      -0.042684        -1.1615
 106   1.0000      -0.037428        -1.0185
 107   1.0000      -0.036510        -0.9935
 108   1.0000      -0.024380        -0.6634
 109   1.0000      -0.008879        -0.2416
 110   1.0000      -0.006440        -0.1752
 111   1.0000       0.001653         0.0450
 112   1.0000       0.004455         0.1212
 113   1.0000       0.020069         0.5461
 114   1.0000       0.039444         1.0733
 115   1.0000       0.062242         1.6937
 116   0.0000       0.187432         5.1003
 117   0.0000       0.190828         5.1927
 118   0.0000       0.198127         5.3913
 119   0.0000       0.198746         5.4082
 120   0.0000       0.200621         5.4592

MULLIKEN ATOMIC CHARGES AND SPIN POPULATIONS
--------------------------------------------
   0 V :    0.371899    1.197038
   1 S :   -0.253440   -0.022738
   2 S :   -0.255874   -0.022585
   3 S :   -0.254317   -0.022814
   4 S :   -0.254276   -0.022367
   5 O :   -0.432171   -0.148452
   6 C :   -0.112244    0.009694
   7 C :   -0.113565    0.009701
   8 C :   -0.113078    0.009869
   9 C :   -0.112032    0.009791
  10 S :   -0.043757    0.000708
  11 S :   -0.043170    0.000625
  12 S :   -0.043719    0.000690
  13 S :   -0.043537    0.000648
  14 C :   -0.340490    0.000127
  15 C :   -0.340924    0.000138
  16 C :   -0.341389    0.000134
  17 C :   -0.339763    0.000139
  18 C :   -0.075568   -0.000199
  19 H :    0.143747   -0.000023
  20 H :    0.101276   -0.000014
  21 H :    0.038333    0.000025
  22 H :    0.082453    0.000060
  23 H :    0.101132   -0.000009
  24 H :    0.141988   -0.000025
  25 C :   -0.075701   -0.000173
  26 H :    0.101010   -0.000004
  27 H :    0.142134   -0.000025
  28 H :    0.082348    0.000051
  29 H :    0.038151    0.000018
  30 H :    0.143438   -0.000023
  31 H :    0.101105   -0.000006
Sum of atomic charges         :   -2.0000000

LOEWDIN ATOMIC CHARGES AND SPIN POPULATIONS
-------------------------------------------
   0 V :   -0.295873    1.144201
   1 S :    0.091802   -0.014151
   2 S :    0.088871   -0.014115
   3 S :    0.090633   -0.014246
   4 S :    0.090785   -0.013912
   5 O :   -0.314459   -0.131686
   6 C :   -0.549201    0.011465
   7 C :   -0.548097    0.011464
   8 C :   -0.547869    0.011570
   9 C :   -0.548553    0.011559
  10 S :    0.338366   -0.000508
  11 S :    0.338046   -0.000562
  12 S :    0.338237   -0.000525
  13 S :    0.338066   -0.000549
  14 C :   -0.295768    0.000023
  15 C :   -0.295677    0.000034
  16 C :   -0.295659    0.000024
  17 C :   -0.295854    0.000037
  18 C :   -0.187710   -0.000046
  19 H :    0.064852   -0.000003
  20 H :    0.047023   -0.000007
  21 H :    0.045271   -0.000015
  22 H :    0.055401    0.000016
  23 H :    0.047103   -0.000003
  24 H :    0.064151   -0.000006
  25 C :   -0.187800   -0.000050
  26 H :    0.047060    0.000001
  27 H :    0.064267   -0.000004
  28 H :    0.055518    0.000013
  29 H :    0.045284   -0.000016
  30 H :    0.064775   -0.000003
  31 H :    0.047008   -0.000001

  Mayer bond orders larger than 0.100000
B(  0-V ,  1-S ) :   0.8023 B(  0-V ,  2-S ) :   0.8006 B(  0-V ,  3-S ) :   0.8038
B(  0-V ,  4-S ) :   0.8001 B(  0-V ,  5-O ) :   2.1787 B(  1-S ,  8-C ) :   1.1351
B(  2-S ,  6-C ) :   1.1339 B(  3-S ,  9-C ) :   1.1337 B(  4-S ,  7-C ) :   1.1353
B(  6-C ,  7-C ) :   1.5238 B(  6-C , 10-S ) :   0.9492 B(  7-C , 11-S ) :   0.9508
B(  8-C ,  9-C ) :   1.5244 B(  8-C , 13-S ) :   0.9505 B(  9-C , 12-S ) :   0.9499
B( 10-S , 16-C ) :   1.0132 B( 11-S , 14-C ) :   1.0152 B( 12-S , 15-C ) :   1.0138
B( 13-S , 17-C ) :   1.0155 B( 14-C , 18-C ) :   0.8730 B( 14-C , 23-H ) :   0.9718
B( 14-C , 24-H ) :   0.9739 B( 15-C , 25-C ) :   0.8731 B( 15-C , 30-H ) :   0.9741
B( 15-C , 31-H ) :   0.9715 B( 16-C , 18-C ) :   0.8730 B( 16-C , 19-H ) :   0.9741
B( 16-C , 20-H ) :   0.9714 B( 17-C , 25-C ) :   0.8731 B( 17-C , 26-H ) :   0.9717
B( 17-C , 27-H ) :   0.9737 B( 18-C , 21-H ) :   0.9496 B( 18-C , 22-H ) :   0.9711
B( 25-C , 28-H ) :   0.9710 B( 25-C , 29-H ) :   0.9496

FINAL SINGLE POINT ENERGY     -4592.708092408460

DIPOLE MOMENT
-------------
                                X             Y             Z
Electronic contribution:     24.84309      -4.17842      -1.88818
Nuclear contribution   :    -27.83313       4.67805       2.11366
                        -----------------------------------------
Total Dipole Moment    :     -2.99004       0.49963       0.22548
                        -----------------------------------------
Magnitude (a.u.)       :      3.03987
Magnitude (Debye)      :      7.72673

Rotational constants in cm-1:     0.012674     0.002602     0.002447
Rotational constants in MHz :   379.958328    78.011518    73.355373

                             ****ORCA TERMINATED NORMALLY****
TOTAL RUN TIME: 0 days 0 hours 43 minutes 0 seconds 942 msec
