                         Program Version 5.0.4 -  RELEASE  -
|  1> ! nofrozencore ReducedPop printbasis
|  2> ! B3LYP TZVP
|  3>
|  4> %basis
|  5> newgto V "CP(PPP)" end
|  6> end
|  7>
|  8> %pal
|  9> nprocs 4
| 10> end
| 11>
| 12> % sym SymThresh 1e-2 end
| 13> * xyz -2 2
| 14> V 0.785674976907722 0.5106965273254004 -0.6492544797202612
| 15> S -0.688788257311422 2.0746878849868615 -0.40220275220296275
| 16> S 1.655689942433064 0.6513223883540228 1.317535585405119
| 17> S -1.2949977384214038 -0.689365662803901 -2.0301507441242848
| 18> S 1.2202990767594608 -2.1867195875797054 -0.2199518932613485
| 19> O 1.7932768449128502 0.6626264280202813 -1.9269950316091884
| 20> C 2.597210118658752 -0.7404156729363811 1.8639046710840013
| 21> C 2.2508560833939364 -1.8898885791106574 1.2111142084690498
| 22> C -2.046778740634806 2.057262483085242 -1.53589629105625
| 23> C -2.2597685222517905 0.8193243990885304 -2.0763798218601957
| 24> S 3.727925925171786 -0.5977850975256488 3.3966265725235885
| 25> S 3.0542047424058825 -3.3209779627120826 1.6347136423921882
| 26> S -3.5406997568851066 0.6359907775215795 -3.1778783988746713
| 27> S -3.1983523488315533 3.579488398589252 -1.6836943835395555
| 28> C 2.384613095721605 -3.8293031449189887 3.2651226281656824
| 29> C -5.077557834224705 0.6616426506845878 -2.1787764529350877
| 30> C 2.7553813866418864 -1.6467083772719804 4.601161339443524
| 31> C -4.735060584823493 2.8753151613874883 -0.8849613768036789
| 32> C 2.986518870140587 -3.1560103531988544 4.495853180238635
| 33> H 1.6999832748832164 -1.402343625077475 4.435540876462182
| 34> H 3.035443910671767 -1.2936033836066252 5.604745253527246
| 35> H 2.5454226182264255 -3.629041799305024 5.388700321764543
| 36> H 4.062827623323679 -3.3571452604301473 4.527476878939358
| 37> H 2.5979681830022807 -4.908481567708566 3.3093321913828926
| 38> H 1.2928272118129398 -3.7046515826768576 3.2448688236497074
| 39> C -5.626780698174128 2.0350803479400326 -1.8021358027314023
| 40> H -5.300397441839786 3.737941987726079 -0.5003611589228938
| 41> H -4.389934309423527 2.284298097255161 -0.028411064598989497
| 42> H -5.8366277373165305 2.6021827107340787 -2.715544979077676
| 43> H -6.591254922485563 1.8837624875681258 -1.289971828782313
| 44> H -4.918343970262085 0.04326054429953362 -1.2849595250931065
| 45> H -5.812635080770253 0.1466416438486661 -2.8152693797983823
| 46> *
| 47>
| 48> % eprnmr
| 49> gtensor true
| 50> Nuclei = all H {aiso,adip,aorb,fgrad,rho}
| 51> Nuclei = all V {aiso,adip,aorb,fgrad,rho}
| 52> end
| 53>
| 54>                          ****END OF INPUT****

CARTESIAN COORDINATES (ANGSTROEM)
---------------------------------
  V      0.786528    0.510995   -0.650024
  S     -0.687936    2.074986   -0.402973
  S      1.656543    0.651620    1.316766
  S     -1.294145   -0.689068   -2.030921
  S      1.221152   -2.186422   -0.220722
  O      1.794129    0.662924   -1.927765
  C      2.598063   -0.740118    1.863135
  C      2.251709   -1.889591    1.210344
  C     -2.045926    2.057560   -1.536666
  C     -2.258916    0.819622   -2.077150
  S      3.728779   -0.597487    3.395857
  S      3.055057   -3.320680    1.633944
  S     -3.539847    0.636289   -3.178648
  S     -3.197500    3.579786   -1.684464
  C      2.385466   -3.829005    3.264353
  C     -5.076705    0.661941   -2.179546
  C      2.756234   -1.646410    4.600391
  C     -4.734208    2.875613   -0.885731
  C      2.987371   -3.155712    4.495083
  H      1.700836   -1.402046    4.434771
  H      3.036297   -1.293305    5.603975
  H      2.546275   -3.628744    5.387930
  H      4.063680   -3.356847    4.526707
  H      2.598821   -4.908184    3.308562
  H      1.293680   -3.704354    3.244099
  C     -5.625928    2.035378   -1.802906
  H     -5.299545    3.738240   -0.501131
  H     -4.389082    2.284596   -0.029181
  H     -5.835775    2.602481   -2.716315
  H     -6.590402    1.884060   -1.290742
  H     -4.917491    0.043559   -1.285729
  H     -5.811782    0.146940   -2.816039

 Total Charge           Charge          ....   -2
 Multiplicity           Mult            ....    2
 Number of Electrons    NEL             ....  233
 Basis Dimension        Dim             ....  517

ORBITAL ENERGIES
----------------
                 SPIN UP ORBITALS
  NO   OCC          E(Eh)            E(eV)
   0   1.0000    -196.634002     -5350.6832
   1   1.0000     -88.692559     -2413.4472
   2   1.0000     -88.692327     -2413.4409
   3   1.0000     -88.662022     -2412.6163
   4   1.0000     -88.661878     -2412.6124
   5   1.0000     -88.612893     -2411.2794
   6   1.0000     -88.612573     -2411.2707
   7   1.0000     -88.611136     -2411.2316
   8   1.0000     -88.610850     -2411.2238
   9   1.0000     -22.009374      -598.9055
  10   1.0000     -18.844930      -512.7966
  11   1.0000     -18.515783      -503.8401
  12   1.0000     -18.510887      -503.7068
  13   1.0000     -18.510493      -503.6961
  14   1.0000     -10.022406      -272.7235
  15   1.0000     -10.022151      -272.7166
  16   1.0000     -10.011961      -272.4393
  17   1.0000     -10.011449      -272.4254
  18   1.0000     -10.005123      -272.2532
  19   1.0000     -10.004722      -272.2423
  20   1.0000      -9.999274      -272.0941
  21   1.0000      -9.999054      -272.0881
  22   1.0000      -9.989734      -271.8345
  23   1.0000      -9.989707      -271.8337
  24   1.0000      -7.743616      -210.7145
  25   1.0000      -7.743357      -210.7075
  26   1.0000      -7.718863      -210.0409
  27   1.0000      -7.718610      -210.0341
  28   1.0000      -7.670808      -208.7333
  29   1.0000      -7.670318      -208.7200
  30   1.0000      -7.663793      -208.5424
  31   1.0000      -7.663401      -208.5317
  32   1.0000      -5.708918      -155.3476
  33   1.0000      -5.708656      -155.3404
  34   1.0000      -5.705506      -155.2547
  35   1.0000      -5.705266      -155.2482
  36   1.0000      -5.698289      -155.0583
  37   1.0000      -5.698020      -155.0510
  38   1.0000      -5.684109      -154.6725
  39   1.0000      -5.683854      -154.6655
  40   1.0000      -5.679599      -154.5497
  41   1.0000      -5.679380      -154.5438
  42   1.0000      -5.673527      -154.3845
  43   1.0000      -5.673274      -154.3776
  44   1.0000      -5.635133      -153.3398
  45   1.0000      -5.634646      -153.3265
  46   1.0000      -5.629361      -153.1827
  47   1.0000      -5.629003      -153.1730
  48   1.0000      -5.628860      -153.1691
  49   1.0000      -5.628634      -153.1629
  50   1.0000      -5.628579      -153.1614
  51   1.0000      -5.628124      -153.1490
  52   1.0000      -5.622402      -152.9933
  53   1.0000      -5.622013      -152.9827
  54   1.0000      -5.621503      -152.9689
  55   1.0000      -5.621120      -152.9585
  56   1.0000      -2.404738       -65.4362
  57   1.0000      -1.443840       -39.2889
  58   1.0000      -1.435683       -39.0669
  59   1.0000      -1.435344       -39.0577
  60   1.0000      -0.645668       -17.5695
  61   1.0000      -0.645007       -17.5515
  62   1.0000      -0.605562       -16.4782
  63   1.0000      -0.600466       -16.3395
  64   1.0000      -0.599263       -16.3068
  65   1.0000      -0.572604       -15.5814
  66   1.0000      -0.572096       -15.5675
  67   1.0000      -0.499933       -13.6039
  68   1.0000      -0.497406       -13.5351
  69   1.0000      -0.481921       -13.1137
  70   1.0000      -0.480738       -13.0815
  71   1.0000      -0.421681       -11.4745
  72   1.0000      -0.418968       -11.4007
  73   1.0000      -0.412800       -11.2329
  74   1.0000      -0.407640       -11.0925
  75   1.0000      -0.375950       -10.2301
  76   1.0000      -0.372602       -10.1390
  77   1.0000      -0.292459        -7.9582
  78   1.0000      -0.291775        -7.9396
  79   1.0000      -0.279221        -7.5980
  80   1.0000      -0.278600        -7.5811
  81   1.0000      -0.260147        -7.0790
  82   1.0000      -0.255504        -6.9526
  83   1.0000      -0.242416        -6.5965
  84   1.0000      -0.240123        -6.5341
  85   1.0000      -0.195477        -5.3192
  86   1.0000      -0.192836        -5.2473
  87   1.0000      -0.192413        -5.2358
  88   1.0000      -0.190758        -5.1908
  89   1.0000      -0.185020        -5.0347
  90   1.0000      -0.184296        -5.0150
  91   1.0000      -0.182454        -4.9648
  92   1.0000      -0.157581        -4.2880
  93   1.0000      -0.150900        -4.1062
  94   1.0000      -0.146344        -3.9822
  95   1.0000      -0.144636        -3.9358
  96   1.0000      -0.142891        -3.8883
  97   1.0000      -0.099785        -2.7153
  98   1.0000      -0.092557        -2.5186
  99   1.0000      -0.089350        -2.4313
 100   1.0000      -0.085754        -2.3335
 101   1.0000      -0.074978        -2.0403
 102   1.0000      -0.062715        -1.7066
 103   1.0000      -0.056254        -1.5307
 104   1.0000      -0.053743        -1.4624
 105   1.0000      -0.041251        -1.1225
 106   1.0000      -0.039229        -1.0675
 107   1.0000      -0.035647        -0.9700
 108   1.0000      -0.031845        -0.8665
 109   1.0000      -0.018041        -0.4909
 110   1.0000      -0.010579        -0.2879
 111   1.0000       0.000721         0.0196
 112   1.0000       0.009376         0.2551
 113   1.0000       0.025928         0.7055
 114   1.0000       0.031514         0.8575
 115   1.0000       0.046618         1.2685
 116   1.0000       0.056618         1.5407
 117   0.0000       0.181134         4.9289
 118   0.0000       0.182859         4.9759
 119   0.0000       0.191893         5.2217
 120   0.0000       0.192274         5.2320
 121   0.0000       0.197872         5.3844

                 SPIN DOWN ORBITALS
  NO   OCC          E(Eh)            E(eV)
   0   1.0000    -196.634024     -5350.6838
   1   1.0000     -88.692587     -2413.4480
   2   1.0000     -88.692354     -2413.4417
   3   1.0000     -88.662018     -2412.6162
   4   1.0000     -88.661875     -2412.6123
   5   1.0000     -88.612914     -2411.2800
   6   1.0000     -88.612596     -2411.2713
   7   1.0000     -88.611317     -2411.2365
   8   1.0000     -88.611033     -2411.2288
   9   1.0000     -21.995785      -598.5357
  10   1.0000     -18.848028      -512.8809
  11   1.0000     -18.510763      -503.7035
  12   1.0000     -18.497278      -503.3365
  13   1.0000     -18.494971      -503.2738
  14   1.0000     -10.022402      -272.7234
  15   1.0000     -10.022147      -272.7165
  16   1.0000     -10.011961      -272.4393
  17   1.0000     -10.011450      -272.4254
  18   1.0000     -10.005121      -272.2532
  19   1.0000     -10.004720      -272.2423
  20   1.0000      -9.998533      -272.0739
  21   1.0000      -9.998298      -272.0675
  22   1.0000      -9.989736      -271.8345
  23   1.0000      -9.989709      -271.8338
  24   1.0000      -7.743644      -210.7153
  25   1.0000      -7.743386      -210.7082
  26   1.0000      -7.718860      -210.0409
  27   1.0000      -7.718608      -210.0340
  28   1.0000      -7.670817      -208.7335
  29   1.0000      -7.670330      -208.7203
  30   1.0000      -7.663963      -208.5470
  31   1.0000      -7.663572      -208.5364
  32   1.0000      -5.708960      -155.3487
  33   1.0000      -5.708699      -155.3416
  34   1.0000      -5.705549      -155.2559
  35   1.0000      -5.705309      -155.2493
  36   1.0000      -5.698319      -155.0591
  37   1.0000      -5.698050      -155.0518
  38   1.0000      -5.684108      -154.6724
  39   1.0000      -5.683853      -154.6655
  40   1.0000      -5.679599      -154.5497
  41   1.0000      -5.679380      -154.5438
  42   1.0000      -5.673509      -154.3840
  43   1.0000      -5.673258      -154.3772
  44   1.0000      -5.635297      -153.3442
  45   1.0000      -5.634808      -153.3309
  46   1.0000      -5.629501      -153.1865
  47   1.0000      -5.629130      -153.1764
  48   1.0000      -5.628999      -153.1729
  49   1.0000      -5.628761      -153.1664
  50   1.0000      -5.628374      -153.1558
  51   1.0000      -5.627931      -153.1438
  52   1.0000      -5.622869      -153.0060
  53   1.0000      -5.622489      -152.9957
  54   1.0000      -5.621697      -152.9742
  55   1.0000      -5.621310      -152.9636
  56   1.0000      -2.363819       -64.3228
  57   1.0000      -1.423874       -38.7456
  58   1.0000      -1.383336       -37.6425
  59   1.0000      -1.377365       -37.4800
  60   1.0000      -0.645572       -17.5669
  61   1.0000      -0.644919       -17.5491
  62   1.0000      -0.612135       -16.6570
  63   1.0000      -0.600399       -16.3377
  64   1.0000      -0.599145       -16.3036
  65   1.0000      -0.572391       -15.5755
  66   1.0000      -0.571890       -15.5619
  67   1.0000      -0.499260       -13.5856
  68   1.0000      -0.496784       -13.5182
  69   1.0000      -0.482066       -13.1177
  70   1.0000      -0.480880       -13.0854
  71   1.0000      -0.421855       -11.4793
  72   1.0000      -0.419175       -11.4063
  73   1.0000      -0.412607       -11.2276
  74   1.0000      -0.407623       -11.0920
  75   1.0000      -0.375493       -10.2177
  76   1.0000      -0.372211       -10.1284
  77   1.0000      -0.292355        -7.9554
  78   1.0000      -0.291689        -7.9372
  79   1.0000      -0.279210        -7.5977
  80   1.0000      -0.278594        -7.5809
  81   1.0000      -0.259576        -7.0634
  82   1.0000      -0.255288        -6.9467
  83   1.0000      -0.242200        -6.5906
  84   1.0000      -0.239929        -6.5288
  85   1.0000      -0.194879        -5.3029
  86   1.0000      -0.192778        -5.2457
  87   1.0000      -0.192086        -5.2269
  88   1.0000      -0.190580        -5.1860
  89   1.0000      -0.184948        -5.0327
  90   1.0000      -0.184222        -5.0129
  91   1.0000      -0.179833        -4.8935
  92   1.0000      -0.155845        -4.2408
  93   1.0000      -0.150701        -4.1008
  94   1.0000      -0.146275        -3.9803
  95   1.0000      -0.144245        -3.9251
  96   1.0000      -0.142764        -3.8848
  97   1.0000      -0.099193        -2.6992
  98   1.0000      -0.090566        -2.4644
  99   1.0000      -0.088761        -2.4153
 100   1.0000      -0.084975        -2.3123
 101   1.0000      -0.074289        -2.0215
 102   1.0000      -0.063130        -1.7179
 103   1.0000      -0.056816        -1.5460
 104   1.0000      -0.046153        -1.2559
 105   1.0000      -0.040881        -1.1124
 106   1.0000      -0.036765        -1.0004
 107   1.0000      -0.034734        -0.9452
 108   1.0000      -0.031136        -0.8473
 109   1.0000      -0.016090        -0.4378
 110   1.0000      -0.005606        -0.1525
 111   1.0000       0.000584         0.0159
 112   1.0000       0.016581         0.4512
 113   1.0000       0.027370         0.7448
 114   1.0000       0.031949         0.8694
 115   1.0000       0.055796         1.5183
 116   0.0000       0.178993         4.8707
 117   0.0000       0.184454         5.0193
 118   0.0000       0.187104         5.0914
 119   0.0000       0.193959         5.2779
 120   0.0000       0.194081         5.2812

MULLIKEN ATOMIC CHARGES AND SPIN POPULATIONS
--------------------------------------------
   0 V :    0.463238    1.107282
   1 S :   -0.220025    0.016669
   2 S :   -0.218720    0.017705
   3 S :   -0.279401   -0.032530
   4 S :   -0.276692   -0.032413
   5 O :   -0.530148   -0.118344
   6 C :   -0.066191    0.020999
   7 C :   -0.183019   -0.000247
   8 C :   -0.065407    0.020793
   9 C :   -0.181722   -0.000287
  10 S :   -0.053272   -0.001765
  11 S :   -0.024788    0.001857
  12 S :   -0.025756    0.001749
  13 S :   -0.054320   -0.001866
  14 C :   -0.319951   -0.000213
  15 C :   -0.320605   -0.000228
  16 C :   -0.348163    0.000161
  17 C :   -0.348505    0.000194
  18 C :   -0.090123    0.000601
  19 H :    0.160011   -0.000190
  20 H :    0.103861    0.000014
  21 H :    0.044694    0.000025
  22 H :    0.079770   -0.000016
  23 H :    0.096691   -0.000088
  24 H :    0.131340   -0.000099
  25 C :   -0.089832    0.000606
  26 H :    0.103601    0.000023
  27 H :    0.160528   -0.000198
  28 H :    0.079940   -0.000024
  29 H :    0.044398    0.000015
  30 H :    0.131890   -0.000097
  31 H :    0.096681   -0.000086
Sum of atomic charges         :   -2.0000000

LOEWDIN ATOMIC CHARGES AND SPIN POPULATIONS
-------------------------------------------
   0 V :   -0.289299    1.061606
   1 S :    0.193753    0.023061
   2 S :    0.198414    0.024052
   3 S :    0.009856   -0.026762
   4 S :    0.013677   -0.026590
   5 O :   -0.386447   -0.107599
   6 C :   -0.529304    0.029285
   7 C :   -0.576288   -0.001003
   8 C :   -0.526208    0.028723
   9 C :   -0.573997   -0.001012
  10 S :    0.302577   -0.002794
  11 S :    0.376869    0.000951
  12 S :    0.375008    0.000874
  13 S :    0.300766   -0.002857
  14 C :   -0.299256    0.000034
  15 C :   -0.299287    0.000024
  16 C :   -0.288702    0.000143
  17 C :   -0.288844    0.000151
  18 C :   -0.186132    0.000021
  19 H :    0.070606   -0.000075
  20 H :    0.047859   -0.000010
  21 H :    0.046576    0.000010
  22 H :    0.053413    0.000003
  23 H :    0.049170   -0.000030
  24 H :    0.061965   -0.000057
  25 C :   -0.186288    0.000013
  26 H :    0.047795   -0.000007
  27 H :    0.070903   -0.000077
  28 H :    0.053445    0.000000
  29 H :    0.046432    0.000007
  30 H :    0.062035   -0.000057
  31 H :    0.048933   -0.000029

  Mayer bond orders larger than 0.100000
B(  0-V ,  1-S ) :   1.0410 B(  0-V ,  2-S ) :   1.0481 B(  0-V ,  3-S ) :   0.5689
B(  0-V ,  4-S ) :   0.5690 B(  0-V ,  5-O ) :   2.0550 B(  1-S ,  8-C ) :   0.9882
B(  2-S ,  6-C ) :   0.9863 B(  3-S ,  9-C ) :   1.2707 B(  4-S ,  7-C ) :   1.2747
B(  6-C ,  7-C ) :   1.4916 B(  6-C , 10-S ) :   0.9206 B(  7-C , 11-S ) :   0.9918
B(  8-C ,  9-C ) :   1.4961 B(  8-C , 13-S ) :   0.9177 B(  9-C , 12-S ) :   0.9868
B( 10-S , 16-C ) :   1.0117 B( 11-S , 14-C ) :   0.9869 B( 12-S , 15-C ) :   0.9887
B( 13-S , 17-C ) :   1.0126 B( 14-C , 18-C ) :   0.8772 B( 14-C , 23-H ) :   0.9732
B( 14-C , 24-H ) :   0.9710 B( 15-C , 25-C ) :   0.8768 B( 15-C , 30-H ) :   0.9711
B( 15-C , 31-H ) :   0.9729 B( 16-C , 18-C ) :   0.8782 B( 16-C , 19-H ) :   0.9777
B( 16-C , 20-H ) :   0.9668 B( 17-C , 25-C ) :   0.8780 B( 17-C , 26-H ) :   0.9667
B( 17-C , 27-H ) :   0.9778 B( 18-C , 21-H ) :   0.9523 B( 18-C , 22-H ) :   0.9747
B( 25-C , 28-H ) :   0.9747 B( 25-C , 29-H ) :   0.9521

FINAL SINGLE POINT ENERGY     -4592.625204749037

DIPOLE MOMENT
-------------
                                X             Y             Z
Electronic contribution:     18.12202       9.07031     -17.28035
Nuclear contribution   :    -20.15340      -9.48126      19.77312
                        -----------------------------------------
Total Dipole Moment    :     -2.03138      -0.41094       2.49277
                        -----------------------------------------
Magnitude (a.u.)       :      3.24180
Magnitude (Debye)      :      8.24001

Rotational constants in cm-1:     0.012702     0.002548     0.002428
Rotational constants in MHz :   380.798876    76.375591    72.787638

                             ****ORCA TERMINATED NORMALLY****
TOTAL RUN TIME: 0 days 0 hours 44 minutes 6 seconds 49 msec
