                         Program Version 5.0.4 -  RELEASE  -
|  1> ! nofrozencore ReducedPop printbasis
|  2> ! B3LYP TZVP
|  3>
|  4> %basis
|  5> newgto V "CP(PPP)" end
|  6> end
|  7>
|  8> %pal
|  9> nprocs 4
| 10> end
| 11>
| 12> % sym SymThresh 1e-2 end
| 13> * xyz -2 2
| 14> V 0.2139551783451022 0.37541284045538903 -1.0281587584485832
| 15> S 1.7393853984072132 1.5351597512443438 0.524692886858764
| 16> S 1.5991253506116272 -1.5881909835879289 -0.6438693636097674
| 17> S -1.4599621557426907 1.834361734763494 -0.03117512868650223
| 18> S -1.5984019579751687 -1.28846413792551 -1.2100637153794915
| 19> O 0.5240110383304977 0.9173231261093652 -2.4984469572385835
| 20> C 0.4828411585010114 -3.2508893996653705 -1.2477827161848847
| 21> C -0.7998691139377532 -2.496733520619606 -1.3495462579952047
| 22> C 0.8951375420965324 2.6695449209926125 0.8867031383766065
| 23> C -0.4256164582063777 3.350061898131293 0.9635284529798873
| 24> S 1.3890610277213455 -4.521970400567751 -1.3541111978832654
| 25> S -1.8550162581726402 -4.187863446516838 -1.9075326925765348
| 26> S -1.3900879332315177 4.521150949755851 1.3581546109761926
| 27> S 1.85418086767642 4.185986680041928 1.9097072572036455
| 28> C -1.8740624843046543 -5.26436240576434 -0.4221711721872483
| 29> C -1.3287491569971406 4.357816299323379 3.208700684164367
| 30> C 0.6584173388273904 -5.534235207987529 0.020661546788315784
| 31> C 1.209851585390328 4.099096247880889 3.626944590836524
| 32> C -0.6846357914096622 -6.210865944124887 -0.26671759090381253
| 33> H 0.6586966939746941 -4.888652026257094 0.9026772532706374
| 34> H 1.4081388794488894 -6.323269654518355 0.15939280190380437
| 35> H -0.8959143346919031 -6.901420687409038 0.5657600885508952
| 36> H -0.5574164312442094 -6.825168988625115 -1.1658708515423115
| 37> H -2.8174385061010994 -5.820370047348294 -0.4495513887817785
| 38> H -1.9123103914721051 -4.624248912266523 0.46402434555493144
| 39> C -0.06931823232767528 4.885404982538703 3.8956040742465063
| 40> H 2.019082475489056 4.429092192440455 4.287524238612067
| 41> H 1.015830443627977 3.049487467700775 3.8670711505088056
| 42> H 0.05010426285362206 5.937110935345737 3.6100263590306305
| 43> H -0.25770371512554885 4.868619961722193 4.9815078198773985
| 44> H -1.5534501403207672 3.3106449094523844 3.4263253898851174
| 45> H -2.1730156093491324 4.976767873677818 3.536541610058531
| 46> *
| 47>
| 48> % eprnmr
| 49> gtensor true
| 50> Nuclei = all H {aiso,adip,aorb,fgrad,rho}
| 51> Nuclei = all V {aiso,adip,aorb,fgrad,rho}
| 52> end
| 53>
| 54>                          ****END OF INPUT****

CARTESIAN COORDINATES (ANGSTROEM)
---------------------------------
  V      0.214185    0.375734   -1.029278
  S      1.739615    1.535481    0.523574
  S      1.599355   -1.587869   -0.644988
  S     -1.459733    1.834683   -0.032294
  S     -1.598173   -1.288142   -1.211183
  O      0.524240    0.917645   -2.499566
  C      0.483071   -3.250568   -1.248902
  C     -0.799640   -2.496412   -1.350665
  C      0.895367    2.669867    0.885584
  C     -0.425387    3.350384    0.962409
  S      1.389290   -4.521649   -1.355230
  S     -1.854787   -4.187542   -1.908652
  S     -1.389859    4.521473    1.357036
  S      1.854410    4.186308    1.908588
  C     -1.873833   -5.264041   -0.423290
  C     -1.328520    4.358138    3.207582
  C      0.658647   -5.533914    0.019543
  C      1.210081    4.099418    3.625826
  C     -0.684406   -6.210544   -0.267837
  H      0.658926   -4.888330    0.901558
  H      1.408368   -6.322948    0.158274
  H     -0.895685   -6.901099    0.564641
  H     -0.557187   -6.824847   -1.166990
  H     -2.817209   -5.820048   -0.450670
  H     -1.912081   -4.623927    0.462905
  C     -0.069089    4.885727    3.894485
  H      2.019312    4.429414    4.286405
  H      1.016060    3.049809    3.865952
  H      0.050334    5.937433    3.608907
  H     -0.257474    4.868942    4.980389
  H     -1.553221    3.310967    3.425206
  H     -2.172786    4.977090    3.535423

 Total Charge           Charge          ....   -2
 Multiplicity           Mult            ....    2
 Number of Electrons    NEL             ....  233
 Basis Dimension        Dim             ....  517

ORBITAL ENERGIES
----------------
                 SPIN UP ORBITALS
  NO   OCC          E(Eh)            E(eV)
   0   1.0000    -196.649225     -5351.0974
   1   1.0000     -88.687138     -2413.2997
   2   1.0000     -88.687071     -2413.2979
   3   1.0000     -88.649183     -2412.2669
   4   1.0000     -88.649040     -2412.2630
   5   1.0000     -88.648649     -2412.2524
   6   1.0000     -88.648397     -2412.2455
   7   1.0000     -88.592403     -2410.7218
   8   1.0000     -88.591838     -2410.7065
   9   1.0000     -22.023859      -599.2997
  10   1.0000     -18.867271      -513.4045
  11   1.0000     -18.530826      -504.2494
  12   1.0000     -18.525175      -504.0956
  13   1.0000     -18.524635      -504.0810
  14   1.0000     -10.026195      -272.8266
  15   1.0000     -10.025700      -272.8132
  16   1.0000     -10.007956      -272.3303
  17   1.0000     -10.007900      -272.3288
  18   1.0000     -10.007674      -272.3226
  19   1.0000     -10.007657      -272.3222
  20   1.0000     -10.000305      -272.1221
  21   1.0000     -10.000156      -272.1181
  22   1.0000      -9.992910      -271.9209
  23   1.0000      -9.992907      -271.9208
  24   1.0000      -7.743560      -210.7130
  25   1.0000      -7.743419      -210.7091
  26   1.0000      -7.713481      -209.8945
  27   1.0000      -7.712563      -209.8695
  28   1.0000      -7.703255      -209.6162
  29   1.0000      -7.702763      -209.6028
  30   1.0000      -7.645077      -208.0331
  31   1.0000      -7.644539      -208.0185
  32   1.0000      -5.708487      -155.3358
  33   1.0000      -5.708360      -155.3324
  34   1.0000      -5.704323      -155.2225
  35   1.0000      -5.704202      -155.2192
  36   1.0000      -5.698660      -155.0684
  37   1.0000      -5.698507      -155.0643
  38   1.0000      -5.676802      -154.4736
  39   1.0000      -5.675914      -154.4495
  40   1.0000      -5.671841      -154.3386
  41   1.0000      -5.670938      -154.3141
  42   1.0000      -5.670785      -154.3099
  43   1.0000      -5.669881      -154.2853
  44   1.0000      -5.668044      -154.2353
  45   1.0000      -5.667537      -154.2215
  46   1.0000      -5.664428      -154.1369
  47   1.0000      -5.663919      -154.1231
  48   1.0000      -5.658484      -153.9752
  49   1.0000      -5.658015      -153.9624
  50   1.0000      -5.609462      -152.6412
  51   1.0000      -5.608899      -152.6259
  52   1.0000      -5.604486      -152.5058
  53   1.0000      -5.603961      -152.4915
  54   1.0000      -5.602948      -152.4640
  55   1.0000      -5.602404      -152.4492
  56   1.0000      -2.418494       -65.8106
  57   1.0000      -1.460120       -39.7319
  58   1.0000      -1.451265       -39.4909
  59   1.0000      -1.444759       -39.3139
  60   1.0000      -0.651013       -17.7150
  61   1.0000      -0.650553       -17.7025
  62   1.0000      -0.628790       -17.1103
  63   1.0000      -0.624489       -16.9932
  64   1.0000      -0.623414       -16.9640
  65   1.0000      -0.593182       -16.1413
  66   1.0000      -0.593149       -16.1404
  67   1.0000      -0.532804       -14.4983
  68   1.0000      -0.532732       -14.4964
  69   1.0000      -0.451488       -12.2856
  70   1.0000      -0.450915       -12.2700
  71   1.0000      -0.431451       -11.7404
  72   1.0000      -0.429797       -11.6954
  73   1.0000      -0.393857       -10.7174
  74   1.0000      -0.390917       -10.6374
  75   1.0000      -0.359496        -9.7824
  76   1.0000      -0.353881        -9.6296
  77   1.0000      -0.290516        -7.9053
  78   1.0000      -0.289983        -7.8909
  79   1.0000      -0.274029        -7.4567
  80   1.0000      -0.273754        -7.4492
  81   1.0000      -0.257580        -7.0091
  82   1.0000      -0.252701        -6.8763
  83   1.0000      -0.240041        -6.5318
  84   1.0000      -0.239449        -6.5157
  85   1.0000      -0.215577        -5.8662
  86   1.0000      -0.209855        -5.7104
  87   1.0000      -0.189293        -5.1509
  88   1.0000      -0.186239        -5.0678
  89   1.0000      -0.183964        -5.0059
  90   1.0000      -0.183059        -4.9813
  91   1.0000      -0.181837        -4.9480
  92   1.0000      -0.180128        -4.9015
  93   1.0000      -0.155789        -4.2392
  94   1.0000      -0.154751        -4.2110
  95   1.0000      -0.136003        -3.7008
  96   1.0000      -0.133197        -3.6245
  97   1.0000      -0.125514        -3.4154
  98   1.0000      -0.123407        -3.3581
  99   1.0000      -0.107588        -2.9276
 100   1.0000      -0.106124        -2.8878
 101   1.0000      -0.100283        -2.7288
 102   1.0000      -0.087837        -2.3902
 103   1.0000      -0.079566        -2.1651
 104   1.0000      -0.049602        -1.3497
 105   1.0000      -0.033802        -0.9198
 106   1.0000      -0.026245        -0.7142
 107   1.0000      -0.011967        -0.3256
 108   1.0000      -0.009910        -0.2697
 109   1.0000      -0.009350        -0.2544
 110   1.0000      -0.001044        -0.0284
 111   1.0000       0.005920         0.1611
 112   1.0000       0.011641         0.3168
 113   1.0000       0.013397         0.3646
 114   1.0000       0.026289         0.7154
 115   1.0000       0.037930         1.0321
 116   1.0000       0.061596         1.6761
 117   0.0000       0.173598         4.7238
 118   0.0000       0.177132         4.8200
 119   0.0000       0.190015         5.1706
 120   0.0000       0.190268         5.1775
 121   0.0000       0.201472         5.4823

                 SPIN DOWN ORBITALS
  NO   OCC          E(Eh)            E(eV)
   0   1.0000    -196.649362     -5351.1012
   1   1.0000     -88.687130     -2413.2995
   2   1.0000     -88.687064     -2413.2977
   3   1.0000     -88.649227     -2412.2681
   4   1.0000     -88.649144     -2412.2658
   5   1.0000     -88.648694     -2412.2536
   6   1.0000     -88.648504     -2412.2484
   7   1.0000     -88.592655     -2410.7287
   8   1.0000     -88.592094     -2410.7134
   9   1.0000     -22.009275      -598.9028
  10   1.0000     -18.870815      -513.5010
  11   1.0000     -18.525676      -504.1093
  12   1.0000     -18.509645      -503.6730
  13   1.0000     -18.508767      -503.6492
  14   1.0000     -10.026072      -272.8233
  15   1.0000     -10.025583      -272.8100
  16   1.0000     -10.007956      -272.3303
  17   1.0000     -10.007871      -272.3280
  18   1.0000     -10.007674      -272.3226
  19   1.0000     -10.007631      -272.3215
  20   1.0000     -10.000300      -272.1220
  21   1.0000     -10.000152      -272.1180
  22   1.0000      -9.992374      -271.9063
  23   1.0000      -9.992371      -271.9062
  24   1.0000      -7.743552      -210.7128
  25   1.0000      -7.743412      -210.7089
  26   1.0000      -7.713581      -209.8972
  27   1.0000      -7.712666      -209.8723
  28   1.0000      -7.703300      -209.6174
  29   1.0000      -7.702808      -209.6041
  30   1.0000      -7.645315      -208.0396
  31   1.0000      -7.644781      -208.0251
  32   1.0000      -5.708491      -155.3359
  33   1.0000      -5.708366      -155.3325
  34   1.0000      -5.704325      -155.2226
  35   1.0000      -5.704206      -155.2193
  36   1.0000      -5.698617      -155.0673
  37   1.0000      -5.698467      -155.0632
  38   1.0000      -5.676893      -154.4761
  39   1.0000      -5.676007      -154.4520
  40   1.0000      -5.671946      -154.3415
  41   1.0000      -5.671052      -154.3172
  42   1.0000      -5.671032      -154.3166
  43   1.0000      -5.670131      -154.2921
  44   1.0000      -5.668097      -154.2368
  45   1.0000      -5.667590      -154.2230
  46   1.0000      -5.664537      -154.1399
  47   1.0000      -5.664030      -154.1261
  48   1.0000      -5.658509      -153.9758
  49   1.0000      -5.658040      -153.9631
  50   1.0000      -5.609873      -152.6524
  51   1.0000      -5.609317      -152.6373
  52   1.0000      -5.604954      -152.5186
  53   1.0000      -5.604430      -152.5043
  54   1.0000      -5.603169      -152.4700
  55   1.0000      -5.602632      -152.4554
  56   1.0000      -2.374570       -64.6153
  57   1.0000      -1.441209       -39.2173
  58   1.0000      -1.390675       -37.8422
  59   1.0000      -1.383973       -37.6598
  60   1.0000      -0.650810       -17.7095
  61   1.0000      -0.650328       -17.6963
  62   1.0000      -0.635772       -17.3002
  63   1.0000      -0.624826       -17.0024
  64   1.0000      -0.623619       -16.9695
  65   1.0000      -0.592963       -16.1353
  66   1.0000      -0.592934       -16.1345
  67   1.0000      -0.532751       -14.4969
  68   1.0000      -0.532680       -14.4949
  69   1.0000      -0.451452       -12.2846
  70   1.0000      -0.450872       -12.2688
  71   1.0000      -0.431455       -11.7405
  72   1.0000      -0.429783       -11.6950
  73   1.0000      -0.394261       -10.7284
  74   1.0000      -0.391287       -10.6475
  75   1.0000      -0.359642        -9.7864
  76   1.0000      -0.354212        -9.6386
  77   1.0000      -0.290397        -7.9021
  78   1.0000      -0.289890        -7.8883
  79   1.0000      -0.273944        -7.4544
  80   1.0000      -0.273674        -7.4471
  81   1.0000      -0.257231        -6.9996
  82   1.0000      -0.252474        -6.8702
  83   1.0000      -0.239952        -6.5294
  84   1.0000      -0.239290        -6.5114
  85   1.0000      -0.214581        -5.8390
  86   1.0000      -0.209468        -5.6999
  87   1.0000      -0.188643        -5.1333
  88   1.0000      -0.186115        -5.0644
  89   1.0000      -0.183861        -5.0031
  90   1.0000      -0.182985        -4.9793
  91   1.0000      -0.181532        -4.9397
  92   1.0000      -0.179967        -4.8971
  93   1.0000      -0.155456        -4.2302
  94   1.0000      -0.154621        -4.2075
  95   1.0000      -0.135294        -3.6815
  96   1.0000      -0.133120        -3.6224
  97   1.0000      -0.124265        -3.3814
  98   1.0000      -0.122596        -3.3360
  99   1.0000      -0.107074        -2.9136
 100   1.0000      -0.105703        -2.8763
 101   1.0000      -0.099743        -2.7142
 102   1.0000      -0.089191        -2.4270
 103   1.0000      -0.082529        -2.2457
 104   1.0000      -0.047651        -1.2966
 105   1.0000      -0.033045        -0.8992
 106   1.0000      -0.023852        -0.6491
 107   1.0000      -0.009713        -0.2643
 108   1.0000      -0.009455        -0.2573
 109   1.0000       0.000445         0.0121
 110   1.0000       0.002689         0.0732
 111   1.0000       0.010581         0.2879
 112   1.0000       0.011901         0.3238
 113   1.0000       0.013910         0.3785
 114   1.0000       0.037983         1.0336
 115   1.0000       0.060813         1.6548
 116   0.0000       0.168618         4.5883
 117   0.0000       0.175810         4.7840
 118   0.0000       0.185531         5.0486
 119   0.0000       0.193572         5.2674
 120   0.0000       0.198114         5.3910

MULLIKEN ATOMIC CHARGES AND SPIN POPULATIONS
--------------------------------------------
   0 V :    0.383250    1.187992
   1 S :   -0.025250   -0.012463
   2 S :   -0.425427   -0.046382
   3 S :   -0.423741   -0.045812
   4 S :   -0.023099   -0.011657
   5 O :   -0.495295   -0.137879
   6 C :   -0.170989    0.029335
   7 C :   -0.061293    0.002351
   8 C :   -0.062806    0.002229
   9 C :   -0.169388    0.029271
  10 S :    0.097656    0.005419
  11 S :   -0.205855   -0.005785
  12 S :    0.095155    0.005137
  13 S :   -0.203153   -0.005639
  14 C :   -0.332955    0.000083
  15 C :   -0.297763    0.001614
  16 C :   -0.295975    0.001570
  17 C :   -0.332832    0.000100
  18 C :   -0.099415    0.000204
  19 H :    0.138109   -0.000003
  20 H :    0.075691    0.000028
  21 H :    0.044899    0.000348
  22 H :    0.074955    0.000085
  23 H :    0.103275   -0.000130
  24 H :    0.136223   -0.000290
  25 C :   -0.097534    0.000239
  26 H :    0.103347   -0.000120
  27 H :    0.135958   -0.000289
  28 H :    0.075075    0.000073
  29 H :    0.043901    0.000326
  30 H :    0.138366   -0.000010
  31 H :    0.076908    0.000054
Sum of atomic charges         :   -2.0000000

LOEWDIN ATOMIC CHARGES AND SPIN POPULATIONS
-------------------------------------------
   0 V :   -0.254799    1.141134
   1 S :    0.383730   -0.007560
   2 S :   -0.124155   -0.033699
   3 S :   -0.121779   -0.033186
   4 S :    0.388582   -0.006943
   5 O :   -0.347434   -0.123139
   6 C :   -0.622547    0.027407
   7 C :   -0.496016    0.004714
   8 C :   -0.496264    0.004459
   9 C :   -0.621616    0.027339
  10 S :    0.471947    0.004208
  11 S :    0.159074   -0.005825
  12 S :    0.469262    0.003972
  13 S :    0.161747   -0.005694
  14 C :   -0.309888    0.000062
  15 C :   -0.289604    0.001262
  16 C :   -0.290358    0.001177
  17 C :   -0.309077    0.000065
  18 C :   -0.183353    0.000120
  19 H :    0.062781    0.000121
  20 H :    0.038543    0.000049
  21 H :    0.046203    0.000152
  22 H :    0.052670    0.000066
  23 H :    0.046393   -0.000161
  24 H :    0.060973   -0.000222
  25 C :   -0.183618    0.000103
  26 H :    0.046648   -0.000154
  27 H :    0.061164   -0.000217
  28 H :    0.052619    0.000060
  29 H :    0.046163    0.000151
  30 H :    0.063032    0.000116
  31 H :    0.038975    0.000064

  Mayer bond orders larger than 0.100000
B(  0-V ,  1-S ) :   0.6250 B(  0-V ,  2-S ) :   0.9412 B(  0-V ,  3-S ) :   0.9387
B(  0-V ,  4-S ) :   0.6212 B(  0-V ,  5-O ) :   2.1133 B(  1-S ,  8-C ) :   1.5585
B(  1-S ,  9-C ) :   0.1754 B(  2-S ,  6-C ) :   0.7681 B(  3-S ,  9-C ) :   0.7724
B(  4-S ,  6-C ) :   0.1774 B(  4-S ,  7-C ) :   1.5655 B(  6-C ,  7-C ) :   1.3965
B(  6-C , 10-S ) :   1.3425 B(  7-C , 11-S ) :   0.6989 B(  8-C ,  9-C ) :   1.4006
B(  8-C , 13-S ) :   0.7037 B(  9-C , 12-S ) :   1.3359 B( 10-S , 16-C ) :   0.9094
B( 11-S , 14-C ) :   1.0508 B( 12-S , 15-C ) :   0.9104 B( 13-S , 17-C ) :   1.0509
B( 14-C , 18-C ) :   0.8785 B( 14-C , 23-H ) :   0.9694 B( 14-C , 24-H ) :   0.9779
B( 15-C , 25-C ) :   0.8998 B( 15-C , 30-H ) :   0.9671 B( 15-C , 31-H ) :   0.9641
B( 16-C , 18-C ) :   0.8996 B( 16-C , 19-H ) :   0.9666 B( 16-C , 20-H ) :   0.9643
B( 17-C , 25-C ) :   0.8790 B( 17-C , 26-H ) :   0.9693 B( 17-C , 27-H ) :   0.9779
B( 18-C , 21-H ) :   0.9551 B( 18-C , 22-H ) :   0.9737 B( 25-C , 28-H ) :   0.9728
B( 25-C , 29-H ) :   0.9556

FINAL SINGLE POINT ENERGY     -4592.426616916429

DIPOLE MOMENT
-------------
                                X             Y             Z
Electronic contribution:      5.16445       9.10157     -24.92883
Nuclear contribution   :     -5.69339     -10.00095      27.43901
                        -----------------------------------------
Total Dipole Moment    :     -0.52894      -0.89938       2.51018
                        -----------------------------------------
Magnitude (a.u.)       :      2.71839
Magnitude (Debye)      :      6.90961

Rotational constants in cm-1:     0.012769     0.002547     0.002430
Rotational constants in MHz :   382.818309    76.344513    72.834749

                             ****ORCA TERMINATED NORMALLY****
TOTAL RUN TIME: 0 days 0 hours 43 minutes 0 seconds 545 msec
