                         Program Version 5.0.4 -  RELEASE  -
|  1> ! nofrozencore ReducedPop printbasis
|  2> ! B3LYP TZVP
|  3>
|  4> %basis
|  5> newgto V "CP(PPP)" end
|  6> end
|  7>
|  8> %pal
|  9> nprocs 4
| 10> end
| 11>
| 12> % sym SymThresh 1e-2 end
| 13> * xyz -2 2
| 14> V 0.4597910103023388 0.8906917192458573 0.6201424840994311
| 15> S -1.0639331372924017 1.8463357437043948 -1.0443974434776675
| 16> S -1.5650376459753113 0.13204567698541056 1.7701559388665515
| 17> S 1.8936302669830485 0.501248264643636 -1.3271146570030987
| 18> S 1.4044528935428138 -1.190690705142041 1.505134553995943
| 19> O 1.0806935319664746 2.101558679111235 1.4558504779307067
| 20> C -1.005983060950463 -1.1703181755409178 2.8277227804465404
| 21> C 0.2310014643292318 -1.7223511397340387 2.7161669022476524
| 22> C -0.058779732218613254 2.0534812278941383 -2.4840362612070885
| 23> C 1.1739498702600601 1.4930404942074287 -2.6021095411965707
| 24> S -2.2196066053998287 -1.7397816787633338 4.036957038431655
| 25> S 0.7845966128694409 -3.0854596133566736 3.7627068479300494
| 26> S 2.1796707374550857 1.6607926274260711 -4.092091108155732
| 27> S -0.8157077520553937 3.0245083207942463 -3.8050470858311476
| 28> C -0.2889969931114872 -4.486175153835183 3.2111420871631324
| 29> C 1.2222450986447067 0.6896358773899703 -5.339882876561766
| 30> C -2.6411578077125455 -3.433525568532842 3.4274858717378094
| 31> C -1.1227748751118043 1.7584350165359508 -5.115998429172441
| 32> C -1.6833141499394093 -4.553351048084632 3.834747550567748
| 33> H -2.733549907210426 -3.3700297057438173 2.339985950746524
| 34> H -3.6355907741382927 -3.639376836039784 3.837055045445345
| 35> H -2.14010272255052 -5.513143750249765 3.538710202141142
| 36> H -1.5896301354960949 -4.568421719721907 4.9273344789003115
| 37> H 0.2707346868836573 -5.389416283892131 3.475395378170569
| 38> H -0.3473991881955672 -4.435627948150359 2.120610040986672
| 39> C 0.06419604354981134 1.4213403556347108 -6.01838905223846
| 40> H -1.932875513899339 2.175633048802953 -5.72321351986895
| 41> H -1.5057716100607235 0.8645940230780305 -4.616356202439526
| 42> H 0.4405724456634167 2.343186023962717 -6.4781236626485414
| 43> H -0.3055747851479763 0.7820392773866826 -6.83809396449656
| 44> H 0.8767735115648959 -0.22051588902305533 -4.842311367339417
| 45> H 1.9600292668863069 0.3991580189518867 -6.095100433663872
| 46> *
| 47>
| 48> % eprnmr
| 49> gtensor true
| 50> Nuclei = all H {aiso,adip,aorb,fgrad,rho}
| 51> Nuclei = all V {aiso,adip,aorb,fgrad,rho}
| 52> end
| 53>
| 54>                          ****END OF INPUT****

CARTESIAN COORDINATES (ANGSTROEM)
---------------------------------
  V      0.460235    0.891547    0.620835
  S     -1.063489    1.847191   -1.043705
  S     -1.564594    0.132901    1.770848
  S      1.894074    0.502104   -1.326422
  S      1.404897   -1.189835    1.505827
  O      1.081138    2.102414    1.456543
  C     -1.005539   -1.169463    2.828415
  C      0.231446   -1.721496    2.716859
  C     -0.058336    2.054337   -2.483344
  C      1.174394    1.493896   -2.601417
  S     -2.219162   -1.738926    4.037649
  S      0.785041   -3.084604    3.763399
  S      2.180115    1.661648   -4.091399
  S     -0.815264    3.025364   -3.804355
  C     -0.288553   -4.485320    3.211834
  C      1.222689    0.690491   -5.339191
  C     -2.640714   -3.432670    3.428178
  C     -1.122331    1.759291   -5.115306
  C     -1.682870   -4.552495    3.835440
  H     -2.733106   -3.369174    2.340678
  H     -3.635147   -3.638521    3.837747
  H     -2.139659   -5.512288    3.539402
  H     -1.589186   -4.567566    4.928027
  H      0.271179   -5.388561    3.476088
  H     -0.346955   -4.434772    2.121302
  C      0.064640    1.422196   -6.017697
  H     -1.932431    2.176489   -5.722521
  H     -1.505327    0.865450   -4.615664
  H      0.441017    2.344042   -6.477431
  H     -0.305131    0.782895   -6.837402
  H      0.877218   -0.219660   -4.841619
  H      1.960473    0.400014   -6.094408

 Total Charge           Charge          ....   -2
 Multiplicity           Mult            ....    2
 Number of Electrons    NEL             ....  233
 Basis Dimension        Dim             ....  517

ORBITAL ENERGIES
----------------
                 SPIN UP ORBITALS
  NO   OCC          E(Eh)            E(eV)
   0   1.0000    -196.640175     -5350.8512
   1   1.0000     -88.676403     -2413.0076
   2   1.0000     -88.676353     -2413.0062
   3   1.0000     -88.676335     -2413.0058
   4   1.0000     -88.676326     -2413.0055
   5   1.0000     -88.611953     -2411.2538
   6   1.0000     -88.611941     -2411.2535
   7   1.0000     -88.611907     -2411.2526
   8   1.0000     -88.611876     -2411.2517
   9   1.0000     -22.015976      -599.0852
  10   1.0000     -18.857123      -513.1284
  11   1.0000     -18.522820      -504.0316
  12   1.0000     -18.517021      -503.8738
  13   1.0000     -18.516979      -503.8726
  14   1.0000     -10.015385      -272.5325
  15   1.0000     -10.015361      -272.5318
  16   1.0000     -10.015290      -272.5299
  17   1.0000     -10.015271      -272.5294
  18   1.0000     -10.004872      -272.2464
  19   1.0000     -10.004783      -272.2440
  20   1.0000      -9.991786      -271.8903
  21   1.0000      -9.991755      -271.8895
  22   1.0000      -9.991065      -271.8707
  23   1.0000      -9.991042      -271.8701
  24   1.0000      -7.730010      -210.3443
  25   1.0000      -7.729958      -210.3429
  26   1.0000      -7.729945      -210.3425
  27   1.0000      -7.729929      -210.3421
  28   1.0000      -7.666376      -208.6127
  29   1.0000      -7.666371      -208.6125
  30   1.0000      -7.666328      -208.6114
  31   1.0000      -7.666312      -208.6110
  32   1.0000      -5.695258      -154.9758
  33   1.0000      -5.695202      -154.9743
  34   1.0000      -5.695182      -154.9738
  35   1.0000      -5.695178      -154.9737
  36   1.0000      -5.691383      -154.8704
  37   1.0000      -5.691333      -154.8691
  38   1.0000      -5.691314      -154.8685
  39   1.0000      -5.691300      -154.8682
  40   1.0000      -5.684744      -154.6897
  41   1.0000      -5.684701      -154.6886
  42   1.0000      -5.684694      -154.6884
  43   1.0000      -5.684673      -154.6878
  44   1.0000      -5.631218      -153.2332
  45   1.0000      -5.631212      -153.2331
  46   1.0000      -5.631159      -153.2316
  47   1.0000      -5.631155      -153.2315
  48   1.0000      -5.624803      -153.0587
  49   1.0000      -5.624798      -153.0585
  50   1.0000      -5.624757      -153.0574
  51   1.0000      -5.624750      -153.0572
  52   1.0000      -5.624370      -153.0469
  53   1.0000      -5.624362      -153.0467
  54   1.0000      -5.624323      -153.0456
  55   1.0000      -5.624303      -153.0451
  56   1.0000      -2.409620       -65.5691
  57   1.0000      -1.450964       -39.4827
  58   1.0000      -1.439471       -39.1700
  59   1.0000      -1.438241       -39.1365
  60   1.0000      -0.643187       -17.5020
  61   1.0000      -0.643118       -17.5001
  62   1.0000      -0.618234       -16.8230
  63   1.0000      -0.593476       -16.1493
  64   1.0000      -0.593027       -16.1371
  65   1.0000      -0.575131       -15.6501
  66   1.0000      -0.575038       -15.6476
  67   1.0000      -0.491163       -13.3652
  68   1.0000      -0.489270       -13.3137
  69   1.0000      -0.487139       -13.2557
  70   1.0000      -0.485928       -13.2228
  71   1.0000      -0.422964       -11.5094
  72   1.0000      -0.420069       -11.4307
  73   1.0000      -0.412322       -11.2198
  74   1.0000      -0.407141       -11.0789
  75   1.0000      -0.376028       -10.2322
  76   1.0000      -0.372847       -10.1457
  77   1.0000      -0.292280        -7.9533
  78   1.0000      -0.292089        -7.9481
  79   1.0000      -0.277210        -7.5433
  80   1.0000      -0.276951        -7.5362
  81   1.0000      -0.260222        -7.0810
  82   1.0000      -0.255444        -6.9510
  83   1.0000      -0.241737        -6.5780
  84   1.0000      -0.238785        -6.4977
  85   1.0000      -0.195196        -5.3116
  86   1.0000      -0.192129        -5.2281
  87   1.0000      -0.191902        -5.2219
  88   1.0000      -0.191058        -5.1989
  89   1.0000      -0.184352        -5.0165
  90   1.0000      -0.184123        -5.0102
  91   1.0000      -0.180966        -4.9243
  92   1.0000      -0.150527        -4.0961
  93   1.0000      -0.149873        -4.0782
  94   1.0000      -0.143508        -3.9050
  95   1.0000      -0.143163        -3.8957
  96   1.0000      -0.141757        -3.8574
  97   1.0000      -0.097337        -2.6487
  98   1.0000      -0.096295        -2.6203
  99   1.0000      -0.089239        -2.4283
 100   1.0000      -0.083178        -2.2634
 101   1.0000      -0.081456        -2.2165
 102   1.0000      -0.080278        -2.1845
 103   1.0000      -0.069636        -1.8949
 104   1.0000      -0.050238        -1.3671
 105   1.0000      -0.038281        -1.0417
 106   1.0000      -0.037366        -1.0168
 107   1.0000      -0.035559        -0.9676
 108   1.0000      -0.031446        -0.8557
 109   1.0000      -0.013056        -0.3553
 110   1.0000      -0.004840        -0.1317
 111   1.0000      -0.002593        -0.0706
 112   1.0000       0.005744         0.1563
 113   1.0000       0.011142         0.3032
 114   1.0000       0.016167         0.4399
 115   1.0000       0.033621         0.9149
 116   1.0000       0.060092         1.6352
 117   0.0000       0.187866         5.1121
 118   0.0000       0.196041         5.3346
 119   0.0000       0.196462         5.3460
 120   0.0000       0.196784         5.3548
 121   0.0000       0.211519         5.7557

                 SPIN DOWN ORBITALS
  NO   OCC          E(Eh)            E(eV)
   0   1.0000    -196.640316     -5350.8550
   1   1.0000     -88.676416     -2413.0079
   2   1.0000     -88.676366     -2413.0066
   3   1.0000     -88.676348     -2413.0061
   4   1.0000     -88.676339     -2413.0059
   5   1.0000     -88.612113     -2411.2582
   6   1.0000     -88.612101     -2411.2579
   7   1.0000     -88.612067     -2411.2569
   8   1.0000     -88.612036     -2411.2561
   9   1.0000     -22.001316      -598.6863
  10   1.0000     -18.860687      -513.2254
  11   1.0000     -18.517691      -503.8920
  12   1.0000     -18.501591      -503.4539
  13   1.0000     -18.500806      -503.4325
  14   1.0000     -10.015383      -272.5324
  15   1.0000     -10.015358      -272.5318
  16   1.0000     -10.015287      -272.5298
  17   1.0000     -10.015268      -272.5293
  18   1.0000     -10.004872      -272.2464
  19   1.0000     -10.004783      -272.2440
  20   1.0000      -9.991532      -271.8834
  21   1.0000      -9.991501      -271.8826
  22   1.0000      -9.990813      -271.8639
  23   1.0000      -9.990790      -271.8632
  24   1.0000      -7.730024      -210.3446
  25   1.0000      -7.729972      -210.3432
  26   1.0000      -7.729959      -210.3429
  27   1.0000      -7.729943      -210.3424
  28   1.0000      -7.666525      -208.6167
  29   1.0000      -7.666519      -208.6166
  30   1.0000      -7.666476      -208.6154
  31   1.0000      -7.666462      -208.6150
  32   1.0000      -5.695275      -154.9763
  33   1.0000      -5.695218      -154.9748
  34   1.0000      -5.695199      -154.9742
  35   1.0000      -5.695195      -154.9741
  36   1.0000      -5.691404      -154.8710
  37   1.0000      -5.691353      -154.8696
  38   1.0000      -5.691334      -154.8691
  39   1.0000      -5.691321      -154.8687
  40   1.0000      -5.684760      -154.6902
  41   1.0000      -5.684717      -154.6890
  42   1.0000      -5.684710      -154.6888
  43   1.0000      -5.684689      -154.6883
  44   1.0000      -5.631390      -153.2379
  45   1.0000      -5.631384      -153.2378
  46   1.0000      -5.631332      -153.2363
  47   1.0000      -5.631326      -153.2362
  48   1.0000      -5.625194      -153.0693
  49   1.0000      -5.625187      -153.0691
  50   1.0000      -5.625151      -153.0681
  51   1.0000      -5.625142      -153.0679
  52   1.0000      -5.624506      -153.0506
  53   1.0000      -5.624500      -153.0504
  54   1.0000      -5.624458      -153.0493
  55   1.0000      -5.624438      -153.0487
  56   1.0000      -2.365465       -64.3676
  57   1.0000      -1.432140       -38.9705
  58   1.0000      -1.378125       -37.5007
  59   1.0000      -1.377278       -37.4776
  60   1.0000      -0.643140       -17.5007
  61   1.0000      -0.643067       -17.4987
  62   1.0000      -0.625868       -17.0307
  63   1.0000      -0.593291       -16.1443
  64   1.0000      -0.592821       -16.1315
  65   1.0000      -0.575126       -15.6500
  66   1.0000      -0.575034       -15.6475
  67   1.0000      -0.491190       -13.3660
  68   1.0000      -0.489308       -13.3147
  69   1.0000      -0.487144       -13.2559
  70   1.0000      -0.485951       -13.2234
  71   1.0000      -0.423207       -11.5160
  72   1.0000      -0.420382       -11.4392
  73   1.0000      -0.412333       -11.2201
  74   1.0000      -0.407238       -11.0815
  75   1.0000      -0.375981       -10.2310
  76   1.0000      -0.372874       -10.1464
  77   1.0000      -0.292256        -7.9527
  78   1.0000      -0.292080        -7.9479
  79   1.0000      -0.277187        -7.5426
  80   1.0000      -0.276938        -7.5359
  81   1.0000      -0.260020        -7.0755
  82   1.0000      -0.255409        -6.9500
  83   1.0000      -0.241631        -6.5751
  84   1.0000      -0.238710        -6.4956
  85   1.0000      -0.194736        -5.2990
  86   1.0000      -0.192082        -5.2268
  87   1.0000      -0.191847        -5.2204
  88   1.0000      -0.191036        -5.1983
  89   1.0000      -0.184298        -5.0150
  90   1.0000      -0.184074        -5.0089
  91   1.0000      -0.178834        -4.8663
  92   1.0000      -0.149852        -4.0777
  93   1.0000      -0.149571        -4.0700
  94   1.0000      -0.143305        -3.8995
  95   1.0000      -0.142849        -3.8871
  96   1.0000      -0.141694        -3.8557
  97   1.0000      -0.095825        -2.6075
  98   1.0000      -0.095797        -2.6068
  99   1.0000      -0.089360        -2.4316
 100   1.0000      -0.083169        -2.2632
 101   1.0000      -0.082108        -2.2343
 102   1.0000      -0.080998        -2.2041
 103   1.0000      -0.070945        -1.9305
 104   1.0000      -0.046102        -1.2545
 105   1.0000      -0.038548        -1.0489
 106   1.0000      -0.036520        -0.9938
 107   1.0000      -0.034498        -0.9388
 108   1.0000      -0.031419        -0.8550
 109   1.0000      -0.012129        -0.3301
 110   1.0000      -0.006204        -0.1688
 111   1.0000      -0.001561        -0.0425
 112   1.0000       0.006577         0.1790
 113   1.0000       0.012032         0.3274
 114   1.0000       0.033795         0.9196
 115   1.0000       0.059298         1.6136
 116   0.0000       0.185096         5.0367
 117   0.0000       0.189161         5.1473
 118   0.0000       0.196497         5.3470
 119   0.0000       0.196519         5.3476
 120   0.0000       0.197119         5.3639

MULLIKEN ATOMIC CHARGES AND SPIN POPULATIONS
--------------------------------------------
   0 V :    0.446646    1.198984
   1 S :   -0.252326   -0.024185
   2 S :   -0.252316   -0.024021
   3 S :   -0.252524   -0.024159
   4 S :   -0.252601   -0.023950
   5 O :   -0.507865   -0.138289
   6 C :   -0.117812    0.008794
   7 C :   -0.116231    0.008767
   8 C :   -0.116454    0.008842
   9 C :   -0.116987    0.008826
  10 S :   -0.046310   -0.000122
  11 S :   -0.046074   -0.000162
  12 S :   -0.046252   -0.000156
  13 S :   -0.046241   -0.000189
  14 C :   -0.338812    0.000228
  15 C :   -0.337753    0.000240
  16 C :   -0.337239    0.000215
  17 C :   -0.337854    0.000260
  18 C :   -0.084296    0.000156
  19 H :    0.147555   -0.000099
  20 H :    0.101730    0.000009
  21 H :    0.044848    0.000041
  22 H :    0.078011    0.000022
  23 H :    0.101789    0.000009
  24 H :    0.148120   -0.000101
  25 C :   -0.084407    0.000162
  26 H :    0.101536    0.000017
  27 H :    0.147889   -0.000106
  28 H :    0.077963    0.000014
  29 H :    0.044773    0.000038
  30 H :    0.147835   -0.000102
  31 H :    0.101660    0.000016
Sum of atomic charges         :   -2.0000000

LOEWDIN ATOMIC CHARGES AND SPIN POPULATIONS
-------------------------------------------
   0 V :   -0.244075    1.152994
   1 S :    0.088653   -0.016429
   2 S :    0.088594   -0.016304
   3 S :    0.088434   -0.016384
   4 S :    0.088329   -0.016276
   5 O :   -0.351875   -0.123819
   6 C :   -0.553089    0.010009
   7 C :   -0.552593    0.009934
   8 C :   -0.552426    0.009946
   9 C :   -0.552779    0.009992
  10 S :    0.334862   -0.001010
  11 S :    0.334732   -0.001036
  12 S :    0.334778   -0.001029
  13 S :    0.334744   -0.001047
  14 C :   -0.293136    0.000139
  15 C :   -0.293193    0.000145
  16 C :   -0.293168    0.000133
  17 C :   -0.293288    0.000154
  18 C :   -0.184916   -0.000029
  19 H :    0.066511   -0.000027
  20 H :    0.047245   -0.000003
  21 H :    0.047018    0.000015
  22 H :    0.053483    0.000015
  23 H :    0.047254   -0.000002
  24 H :    0.066658   -0.000028
  25 C :   -0.184890   -0.000032
  26 H :    0.047238    0.000003
  27 H :    0.066558   -0.000028
  28 H :    0.053492    0.000013
  29 H :    0.046997    0.000016
  30 H :    0.066617   -0.000027
  31 H :    0.047233    0.000002

  Mayer bond orders larger than 0.100000
B(  0-V ,  1-S ) :   0.7893 B(  0-V ,  2-S ) :   0.7912 B(  0-V ,  3-S ) :   0.7913
B(  0-V ,  4-S ) :   0.7886 B(  0-V ,  5-O ) :   2.1057 B(  1-S ,  8-C ) :   1.1397
B(  2-S ,  6-C ) :   1.1386 B(  3-S ,  9-C ) :   1.1389 B(  4-S ,  7-C ) :   1.1396
B(  6-C ,  7-C ) :   1.5207 B(  6-C , 10-S ) :   0.9528 B(  7-C , 11-S ) :   0.9524
B(  8-C ,  9-C ) :   1.5208 B(  8-C , 13-S ) :   0.9525 B(  9-C , 12-S ) :   0.9526
B( 10-S , 16-C ) :   1.0043 B( 11-S , 14-C ) :   1.0044 B( 12-S , 15-C ) :   1.0044
B( 13-S , 17-C ) :   1.0048 B( 14-C , 18-C ) :   0.8781 B( 14-C , 23-H ) :   0.9699
B( 14-C , 24-H ) :   0.9750 B( 15-C , 25-C ) :   0.8783 B( 15-C , 30-H ) :   0.9750
B( 15-C , 31-H ) :   0.9699 B( 16-C , 18-C ) :   0.8784 B( 16-C , 19-H ) :   0.9750
B( 16-C , 20-H ) :   0.9699 B( 17-C , 25-C ) :   0.8783 B( 17-C , 26-H ) :   0.9698
B( 17-C , 27-H ) :   0.9749 B( 18-C , 21-H ) :   0.9528 B( 18-C , 22-H ) :   0.9736
B( 25-C , 28-H ) :   0.9737 B( 25-C , 29-H ) :   0.9528

FINAL SINGLE POINT ENERGY     -4592.724218851854

DIPOLE MOMENT
-------------
                                X             Y             Z
Electronic contribution:     10.86581      21.00912      14.65469
Nuclear contribution   :    -12.10878     -23.41493     -16.33131
                        -----------------------------------------
Total Dipole Moment    :     -1.24297      -2.40582      -1.67662
                        -----------------------------------------
Magnitude (a.u.)       :      3.18496
Magnitude (Debye)      :      8.09553

Rotational constants in cm-1:     0.012348     0.002574     0.002471
Rotational constants in MHz :   370.172985    77.175812    74.090817

                             ****ORCA TERMINATED NORMALLY****
TOTAL RUN TIME: 0 days 0 hours 43 minutes 4 seconds 352 msec
