                         Program Version 5.0.4 -  RELEASE  -
|  1> ! nofrozencore ReducedPop printbasis
|  2> ! B3LYP TZVP
|  3>
|  4> %basis
|  5> newgto V "CP(PPP)" end
|  6> end
|  7>
|  8> %pal
|  9> nprocs 8
| 10> end
| 11>
| 12> % sym SymThresh 1e-2 end
| 13> * xyz -2 2
| 14> V 0.16188476236199312 0.6087549214917422 1.1234759790309643
| 15> S -1.4344565735640886 1.7639921646942425 -0.42065972878931035
| 16> S -1.646056676310972 -1.1113027189583375 1.165408923733589
| 17> S 1.7195385964651333 1.376738558584656 -0.6738811987034246
| 18> S 1.5105176638779292 -1.4903407092697094 0.9317595347600274
| 19> O 0.3584381204638674 1.3729742723063785 2.525430513016761
| 20> C -0.8592285150738308 -2.597111698693167 1.7201604421213488
| 21> C 0.4845928985915131 -2.7579650937400477 1.622385797241558
| 22> C -0.43965635373595113 2.9191844096894717 -1.321533319254017
| 23> C 0.9027441711707853 2.7534949340026285 -1.4307673562284804
| 24> S -1.8932190189576834 -3.913598438645993 2.405846566691766
| 25> S 1.2619534560604264 -4.29601362793252 2.1734486848596677
| 26> S 1.894494369050036 3.9292282373089806 -2.3836363387348896
| 27> S -1.2537228765406883 4.320677470204777 -2.1269357000904825
| 28> C 0.7180687914229719 -5.501891298391779 0.8733685852623578
| 29> C 1.4053788192806398 3.5431681002852473 -4.130122543570759
| 30> C -1.848424738311985 -5.202034451997053 1.0728800084636676
| 31> C -1.159681766602486 3.8563907803087916 -3.919437981002008
| 32> C -0.6503073122276373 -6.155144510361636 1.0828455247713247
| 33> H -1.9211247025473261 -4.671887501868594 0.12019073596781661
| 34> H -2.7709171806196955 -5.77645290032842 1.2066244428739978
| 35> H -0.8001551506376905 -6.896776171316615 0.27583010676557623
| 36> H -0.6417953880344132 -6.715016063360456 2.0301682493310276
| 37> H 1.4920562459848776 -6.275761881333303 0.8613139825095126
| 38> H 0.7605073563405869 -4.972800280340659 -0.08145140611264585
| 39> C 0.13514262319143572 4.22165041348163 -4.649599358084664
| 40> H -2.0005990487510994 4.375293359982565 -4.3905389819855465
| 41> H -1.3567163438010024 2.7832342896298607 -3.9763157904524893
| 42> H 0.2709885265613652 5.313560802682853 -4.618291824469893
| 43> H 0.014167835710134585 3.9461622573603647 -5.714352760990596
| 44> H 1.3289678150326094 2.4554928492096946 -4.201826578474951
| 45> H 2.259719117880554 3.8583282302383948 -4.7379821971817915
| 46> *
| 47>
| 48> % eprnmr
| 49> gtensor true
| 50> Nuclei = all H {aiso,adip,aorb,fgrad,rho}
| 51> Nuclei = all V {aiso,adip,aorb,fgrad,rho}
| 52> end
| 53>
| 54>                          ****END OF INPUT****

CARTESIAN COORDINATES (ANGSTROEM)
---------------------------------
  V      0.162022    0.609245    1.124548
  S     -1.434319    1.764482   -0.419588
  S     -1.645919   -1.110813    1.166481
  S      1.719676    1.377229   -0.672809
  S      1.510655   -1.489851    0.932832
  O      0.358575    1.373464    2.526503
  C     -0.859091   -2.596622    1.721232
  C      0.484730   -2.757475    1.623458
  C     -0.439519    2.919675   -1.320461
  C      0.902881    2.753985   -1.429695
  S     -1.893082   -3.913108    2.406919
  S      1.262091   -4.295523    2.174521
  S      1.894632    3.929718   -2.382564
  S     -1.253586    4.321168   -2.125864
  C      0.718206   -5.501401    0.874441
  C      1.405516    3.543658   -4.129051
  C     -1.848287   -5.201544    1.073952
  C     -1.159545    3.856881   -3.918366
  C     -0.650170   -6.154654    1.083918
  H     -1.920987   -4.671397    0.121263
  H     -2.770780   -5.775963    1.207696
  H     -0.800018   -6.896286    0.276902
  H     -0.641658   -6.714526    2.031240
  H      1.492193   -6.275272    0.862386
  H      0.760645   -4.972310   -0.080379
  C      0.135280    4.222141   -4.648527
  H     -2.000462    4.375783   -4.389467
  H     -1.356579    2.783724   -3.975244
  H      0.271126    5.314051   -4.617220
  H      0.014305    3.946652   -5.713281
  H      1.329105    2.455983   -4.200755
  H      2.259856    3.858818   -4.736910

 Total Charge           Charge          ....   -2
 Multiplicity           Mult            ....    2
 Number of Electrons    NEL             ....  233
 Basis Dimension        Dim             ....  517

ORBITAL ENERGIES
----------------
                 SPIN UP ORBITALS
  NO   OCC          E(Eh)            E(eV)
   0   1.0000    -196.650745     -5351.1388
   1   1.0000     -88.676972     -2413.0231
   2   1.0000     -88.676921     -2413.0217
   3   1.0000     -88.676770     -2413.0176
   4   1.0000     -88.676745     -2413.0169
   5   1.0000     -88.614288     -2411.3174
   6   1.0000     -88.614255     -2411.3165
   7   1.0000     -88.614126     -2411.3130
   8   1.0000     -88.614110     -2411.3125
   9   1.0000     -22.025512      -599.3446
  10   1.0000     -18.861863      -513.2574
  11   1.0000     -18.532425      -504.2929
  12   1.0000     -18.526603      -504.1345
  13   1.0000     -18.526539      -504.1327
  14   1.0000     -10.016338      -272.5584
  15   1.0000     -10.016126      -272.5526
  16   1.0000     -10.016124      -272.5526
  17   1.0000     -10.016019      -272.5497
  18   1.0000     -10.007616      -272.3211
  19   1.0000     -10.007563      -272.3196
  20   1.0000      -9.992303      -271.9044
  21   1.0000      -9.992166      -271.9007
  22   1.0000      -9.991576      -271.8846
  23   1.0000      -9.991442      -271.8809
  24   1.0000      -7.730424      -210.3555
  25   1.0000      -7.730395      -210.3547
  26   1.0000      -7.730229      -210.3502
  27   1.0000      -7.730203      -210.3495
  28   1.0000      -7.668230      -208.6631
  29   1.0000      -7.668198      -208.6623
  30   1.0000      -7.668066      -208.6587
  31   1.0000      -7.668037      -208.6579
  32   1.0000      -5.695671      -154.9871
  33   1.0000      -5.695653      -154.9866
  34   1.0000      -5.695484      -154.9820
  35   1.0000      -5.695452      -154.9811
  36   1.0000      -5.691848      -154.8830
  37   1.0000      -5.691804      -154.8818
  38   1.0000      -5.691640      -154.8774
  39   1.0000      -5.691632      -154.8772
  40   1.0000      -5.685142      -154.7006
  41   1.0000      -5.685106      -154.6996
  42   1.0000      -5.684944      -154.6952
  43   1.0000      -5.684914      -154.6944
  44   1.0000      -5.633084      -153.2840
  45   1.0000      -5.633057      -153.2833
  46   1.0000      -5.632905      -153.2791
  47   1.0000      -5.632897      -153.2789
  48   1.0000      -5.626976      -153.1178
  49   1.0000      -5.626942      -153.1169
  50   1.0000      -5.626818      -153.1135
  51   1.0000      -5.626797      -153.1129
  52   1.0000      -5.625994      -153.0911
  53   1.0000      -5.625942      -153.0897
  54   1.0000      -5.625810      -153.0861
  55   1.0000      -5.625783      -153.0853
  56   1.0000      -2.418180       -65.8020
  57   1.0000      -1.457777       -39.6681
  58   1.0000      -1.447786       -39.3963
  59   1.0000      -1.447143       -39.3788
  60   1.0000      -0.643428       -17.5086
  61   1.0000      -0.643294       -17.5049
  62   1.0000      -0.623266       -16.9599
  63   1.0000      -0.594861       -16.1870
  64   1.0000      -0.594398       -16.1744
  65   1.0000      -0.572991       -15.5919
  66   1.0000      -0.572862       -15.5884
  67   1.0000      -0.493785       -13.4366
  68   1.0000      -0.491906       -13.3854
  69   1.0000      -0.484399       -13.1812
  70   1.0000      -0.482771       -13.1369
  71   1.0000      -0.424336       -11.5468
  72   1.0000      -0.420674       -11.4471
  73   1.0000      -0.413713       -11.2577
  74   1.0000      -0.408730       -11.1221
  75   1.0000      -0.374153       -10.1812
  76   1.0000      -0.370641       -10.0857
  77   1.0000      -0.293257        -7.9799
  78   1.0000      -0.292949        -7.9716
  79   1.0000      -0.276469        -7.5231
  80   1.0000      -0.276212        -7.5161
  81   1.0000      -0.260490        -7.0883
  82   1.0000      -0.255123        -6.9422
  83   1.0000      -0.241389        -6.5685
  84   1.0000      -0.237629        -6.4662
  85   1.0000      -0.195562        -5.3215
  86   1.0000      -0.193492        -5.2652
  87   1.0000      -0.191907        -5.2220
  88   1.0000      -0.190417        -5.1815
  89   1.0000      -0.185010        -5.0344
  90   1.0000      -0.184423        -5.0184
  91   1.0000      -0.183002        -4.9797
  92   1.0000      -0.151480        -4.1220
  93   1.0000      -0.151433        -4.1207
  94   1.0000      -0.143617        -3.9080
  95   1.0000      -0.143581        -3.9070
  96   1.0000      -0.142165        -3.8685
  97   1.0000      -0.101439        -2.7603
  98   1.0000      -0.098222        -2.6728
  99   1.0000      -0.088528        -2.4090
 100   1.0000      -0.084271        -2.2931
 101   1.0000      -0.080991        -2.2039
 102   1.0000      -0.080888        -2.2011
 103   1.0000      -0.074250        -2.0205
 104   1.0000      -0.048058        -1.3077
 105   1.0000      -0.042395        -1.1536
 106   1.0000      -0.040126        -1.0919
 107   1.0000      -0.032331        -0.8798
 108   1.0000      -0.027393        -0.7454
 109   1.0000      -0.018449        -0.5020
 110   1.0000      -0.004387        -0.1194
 111   1.0000      -0.004055        -0.1103
 112   1.0000       0.008376         0.2279
 113   1.0000       0.011776         0.3204
 114   1.0000       0.018115         0.4929
 115   1.0000       0.029118         0.7923
 116   1.0000       0.057003         1.5511
 117   0.0000       0.186166         5.0658
 118   0.0000       0.188259         5.1228
 119   0.0000       0.194182         5.2840
 120   0.0000       0.194321         5.2877
 121   0.0000       0.203427         5.5355

                 SPIN DOWN ORBITALS
  NO   OCC          E(Eh)            E(eV)
   0   1.0000    -196.650889     -5351.1427
   1   1.0000     -88.676988     -2413.0235
   2   1.0000     -88.676937     -2413.0221
   3   1.0000     -88.676786     -2413.0180
   4   1.0000     -88.676761     -2413.0173
   5   1.0000     -88.614472     -2411.3224
   6   1.0000     -88.614439     -2411.3215
   7   1.0000     -88.614310     -2411.3180
   8   1.0000     -88.614293     -2411.3175
   9   1.0000     -22.010334      -598.9316
  10   1.0000     -18.865484      -513.3559
  11   1.0000     -18.527071      -504.1472
  12   1.0000     -18.510486      -503.6959
  13   1.0000     -18.509973      -503.6820
  14   1.0000     -10.016333      -272.5583
  15   1.0000     -10.016121      -272.5525
  16   1.0000     -10.016119      -272.5525
  17   1.0000     -10.016013      -272.5496
  18   1.0000     -10.007615      -272.3211
  19   1.0000     -10.007562      -272.3196
  20   1.0000      -9.992101      -271.8989
  21   1.0000      -9.991965      -271.8952
  22   1.0000      -9.991376      -271.8792
  23   1.0000      -9.991242      -271.8755
  24   1.0000      -7.730440      -210.3560
  25   1.0000      -7.730411      -210.3552
  26   1.0000      -7.730244      -210.3506
  27   1.0000      -7.730218      -210.3499
  28   1.0000      -7.668403      -208.6678
  29   1.0000      -7.668371      -208.6670
  30   1.0000      -7.668239      -208.6634
  31   1.0000      -7.668210      -208.6626
  32   1.0000      -5.695689      -154.9876
  33   1.0000      -5.695670      -154.9871
  34   1.0000      -5.695501      -154.9825
  35   1.0000      -5.695470      -154.9816
  36   1.0000      -5.691870      -154.8837
  37   1.0000      -5.691826      -154.8825
  38   1.0000      -5.691662      -154.8780
  39   1.0000      -5.691655      -154.8778
  40   1.0000      -5.685164      -154.7012
  41   1.0000      -5.685129      -154.7002
  42   1.0000      -5.684967      -154.6958
  43   1.0000      -5.684936      -154.6950
  44   1.0000      -5.633263      -153.2889
  45   1.0000      -5.633234      -153.2881
  46   1.0000      -5.633081      -153.2839
  47   1.0000      -5.633074      -153.2837
  48   1.0000      -5.627413      -153.1297
  49   1.0000      -5.627380      -153.1288
  50   1.0000      -5.627255      -153.1254
  51   1.0000      -5.627238      -153.1249
  52   1.0000      -5.626179      -153.0961
  53   1.0000      -5.626127      -153.0947
  54   1.0000      -5.625993      -153.0910
  55   1.0000      -5.625966      -153.0903
  56   1.0000      -2.372537       -64.5600
  57   1.0000      -1.438094       -39.1325
  58   1.0000      -1.384435       -37.6724
  59   1.0000      -1.384325       -37.6694
  60   1.0000      -0.643399       -17.5078
  61   1.0000      -0.643262       -17.5040
  62   1.0000      -0.631082       -17.1726
  63   1.0000      -0.594759       -16.1842
  64   1.0000      -0.594281       -16.1712
  65   1.0000      -0.573005       -15.5923
  66   1.0000      -0.572877       -15.5888
  67   1.0000      -0.493921       -13.4403
  68   1.0000      -0.492038       -13.3890
  69   1.0000      -0.484544       -13.1851
  70   1.0000      -0.482918       -13.1409
  71   1.0000      -0.424699       -11.5566
  72   1.0000      -0.421109       -11.4589
  73   1.0000      -0.413862       -11.2618
  74   1.0000      -0.408923       -11.1274
  75   1.0000      -0.374180       -10.1820
  76   1.0000      -0.370745       -10.0885
  77   1.0000      -0.293245        -7.9796
  78   1.0000      -0.292950        -7.9716
  79   1.0000      -0.276457        -7.5228
  80   1.0000      -0.276203        -7.5159
  81   1.0000      -0.260373        -7.0851
  82   1.0000      -0.255152        -6.9430
  83   1.0000      -0.241303        -6.5662
  84   1.0000      -0.237601        -6.4654
  85   1.0000      -0.195376        -5.3164
  86   1.0000      -0.193484        -5.2650
  87   1.0000      -0.191860        -5.2208
  88   1.0000      -0.190404        -5.1811
  89   1.0000      -0.184735        -5.0269
  90   1.0000      -0.184365        -5.0168
  91   1.0000      -0.181686        -4.9439
  92   1.0000      -0.151187        -4.1140
  93   1.0000      -0.150933        -4.1071
  94   1.0000      -0.143460        -3.9038
  95   1.0000      -0.143318        -3.8999
  96   1.0000      -0.142151        -3.8681
  97   1.0000      -0.099895        -2.7183
  98   1.0000      -0.097700        -2.6585
  99   1.0000      -0.089074        -2.4238
 100   1.0000      -0.084363        -2.2956
 101   1.0000      -0.083027        -2.2593
 102   1.0000      -0.080604        -2.1933
 103   1.0000      -0.075269        -2.0482
 104   1.0000      -0.044803        -1.2192
 105   1.0000      -0.040768        -1.1094
 106   1.0000      -0.040281        -1.0961
 107   1.0000      -0.031474        -0.8565
 108   1.0000      -0.027528        -0.7491
 109   1.0000      -0.018456        -0.5022
 110   1.0000      -0.005159        -0.1404
 111   1.0000      -0.003547        -0.0965
 112   1.0000       0.012003         0.3266
 113   1.0000       0.019216         0.5229
 114   1.0000       0.029428         0.8008
 115   1.0000       0.056287         1.5316
 116   0.0000       0.184040         5.0080
 117   0.0000       0.188603         5.1321
 118   0.0000       0.190038         5.1712
 119   0.0000       0.194398         5.2898
 120   0.0000       0.194899         5.3035

MULLIKEN ATOMIC CHARGES AND SPIN POPULATIONS
--------------------------------------------
   0 V :    0.515693    1.225502
   1 S :   -0.256655   -0.028964
   2 S :   -0.254148   -0.028680
   3 S :   -0.255846   -0.028709
   4 S :   -0.256547   -0.028703
   5 O :   -0.550545   -0.138988
   6 C :   -0.124699    0.007637
   7 C :   -0.120498    0.007584
   8 C :   -0.121507    0.007642
   9 C :   -0.123407    0.007586
  10 S :   -0.045503   -0.000819
  11 S :   -0.045809   -0.000825
  12 S :   -0.045605   -0.000849
  13 S :   -0.046035   -0.000859
  14 C :   -0.335890    0.000342
  15 C :   -0.334030    0.000355
  16 C :   -0.333087    0.000318
  17 C :   -0.334554    0.000382
  18 C :   -0.092830    0.000213
  19 H :    0.148444   -0.000150
  20 H :    0.102055    0.000045
  21 H :    0.048784    0.000029
  22 H :    0.075216    0.000007
  23 H :    0.102279    0.000047
  24 H :    0.150663   -0.000154
  25 C :   -0.092850    0.000194
  26 H :    0.102041    0.000054
  27 H :    0.149962   -0.000162
  28 H :    0.074986    0.000004
  29 H :    0.048796    0.000028
  30 H :    0.149259   -0.000157
  31 H :    0.101866    0.000051
Sum of atomic charges         :   -2.0000000

LOEWDIN ATOMIC CHARGES AND SPIN POPULATIONS
-------------------------------------------
   0 V :   -0.150023    1.184250
   1 S :    0.072202   -0.021546
   2 S :    0.075188   -0.021304
   3 S :    0.073100   -0.021311
   4 S :    0.072623   -0.021374
   5 O :   -0.375257   -0.125570
   6 C :   -0.555335    0.008037
   7 C :   -0.554598    0.007907
   8 C :   -0.554529    0.007899
   9 C :   -0.554981    0.007943
  10 S :    0.332163   -0.001416
  11 S :    0.331572   -0.001410
  12 S :    0.331687   -0.001428
  13 S :    0.331421   -0.001425
  14 C :   -0.292307    0.000213
  15 C :   -0.292769    0.000217
  16 C :   -0.292814    0.000207
  17 C :   -0.292591    0.000228
  18 C :   -0.183446   -0.000026
  19 H :    0.066869   -0.000041
  20 H :    0.047330    0.000006
  21 H :    0.049006    0.000024
  22 H :    0.053052    0.000009
  23 H :    0.047177    0.000006
  24 H :    0.067616   -0.000039
  25 C :   -0.183450   -0.000027
  26 H :    0.047178    0.000010
  27 H :    0.067392   -0.000041
  28 H :    0.053065    0.000007
  29 H :    0.049061    0.000025
  30 H :    0.067140   -0.000041
  31 H :    0.047260    0.000010

  Mayer bond orders larger than 0.100000
B(  0-V ,  1-S ) :   0.7665 B(  0-V ,  2-S ) :   0.7726 B(  0-V ,  3-S ) :   0.7698
B(  0-V ,  4-S ) :   0.7672 B(  0-V ,  5-O ) :   2.0646 B(  1-S ,  8-C ) :   1.1478
B(  2-S ,  6-C ) :   1.1467 B(  3-S ,  9-C ) :   1.1473 B(  4-S ,  7-C ) :   1.1472
B(  6-C ,  7-C ) :   1.5193 B(  6-C , 10-S ) :   0.9560 B(  7-C , 11-S ) :   0.9544
B(  8-C ,  9-C ) :   1.5199 B(  8-C , 13-S ) :   0.9545 B(  9-C , 12-S ) :   0.9555
B( 10-S , 16-C ) :   1.0002 B( 11-S , 14-C ) :   0.9982 B( 12-S , 15-C ) :   0.9999
B( 13-S , 17-C ) :   0.9992 B( 14-C , 18-C ) :   0.8821 B( 14-C , 23-H ) :   0.9688
B( 14-C , 24-H ) :   0.9758 B( 15-C , 25-C ) :   0.8820 B( 15-C , 30-H ) :   0.9757
B( 15-C , 31-H ) :   0.9689 B( 16-C , 18-C ) :   0.8816 B( 16-C , 19-H ) :   0.9757
B( 16-C , 20-H ) :   0.9691 B( 17-C , 25-C ) :   0.8819 B( 17-C , 26-H ) :   0.9688
B( 17-C , 27-H ) :   0.9757 B( 18-C , 21-H ) :   0.9541 B( 18-C , 22-H ) :   0.9757
B( 25-C , 28-H ) :   0.9759 B( 25-C , 29-H ) :   0.9540

FINAL SINGLE POINT ENERGY     -4592.713027429831

DIPOLE MOMENT
-------------
                                X             Y             Z
Electronic contribution:      3.52001      13.16288      24.32180
Nuclear contribution   :     -3.90377     -14.60702     -26.97190
                        -----------------------------------------
Total Dipole Moment    :     -0.38376      -1.44414      -2.65011
                        -----------------------------------------
Magnitude (a.u.)       :      3.04235
Magnitude (Debye)      :      7.73304

Rotational constants in cm-1:     0.012766     0.002504     0.002418
Rotational constants in MHz :   382.700304    75.056328    72.481475

                             ****ORCA TERMINATED NORMALLY****
TOTAL RUN TIME: 0 days 0 hours 27 minutes 37 seconds 177 msec
