                         Program Version 5.0.4 -  RELEASE  -
|  1> ! nofrozencore ReducedPop printbasis
|  2> ! B3LYP TZVP
|  3>
|  4> %basis
|  5> newgto V "CP(PPP)" end
|  6> end
|  7>
|  8> %pal
|  9> nprocs 4
| 10> end
| 11>
| 12> % sym SymThresh 1e-2 end
| 13> * xyz -2 2
| 14> V 0.6129959504572975 0.866412415813217 0.3585050171262033
| 15> S 0.9461767274542151 -1.1257894198752585 1.7375508584847121
| 16> S 1.8055983585323907 -0.4900878018956149 -1.28785771671418
| 17> S -1.4771291118762417 1.056982880458033 1.6359001521683236
| 18> S -0.5273248578174662 1.7664606126189943 -1.6255344222794899
| 19> O 1.5931834209028555 2.009771717372585 0.8888845258246573
| 20> C 1.462645294841909 0.2924249050833982 -2.831969832565451
| 21> C 0.4967436651468435 1.2401911580241443 -2.975350117155326
| 22> C -0.2175087377264269 -0.9428179996905791 3.0510587249171577
| 23> C -1.223126068037629 -0.02633743145996273 3.018297485815787
| 24> S 2.4684773180128436 -0.3069830578400773 -4.2083905357996745
| 25> S 0.15609306712588011 2.0394737010487405 -4.559848299401394
| 26> S -2.40537549739518 0.16062462731382535 4.372213806953771
| 27> S 0.009782306343152414 -2.1093054445714396 4.412912210335131
| 28> C -0.5671640723896966 0.6705893472703918 -5.569190697388607
| 29> C -3.3856552628507948 -1.4032096628927104 4.287220387387875
| 30> C 1.230246256117514 -1.1724198945652349 -5.270507920625248
| 31> C -1.4928156777689725 -3.1749092789973354 4.2884317325082595
| 32> C 0.43232448656074807 -0.28412266177449763 -6.2293494932897415
| 33> H 0.5651444998269083 -1.730762665571728 -4.602959933929953
| 34> H 1.8169950811459656 -1.8997127875168454 -5.845608008428067
| 35> H -0.1320335242596466 -0.9434713139285724 -6.908876202686401
| 36> H 1.1296163141484417 0.2939449272286183 -6.850488678999787
| 37> H -1.1557216941649346 1.1780911708457626 -6.343712884786069
| 38> H -1.2634137057908594 0.12546642601561486 -4.922680992325795
| 39> C -2.7589180206473998 -2.630124820055415 4.956169375299285
| 40> H -1.2029159469083541 -4.11916496255149 4.766453852882011
| 41> H -1.6605725310600539 -3.3756967380060123 3.2245537133642808
| 42> H -2.5403857670200596 -2.3971867956247186 6.007202112907338
| 43> H -3.512938816585527 -3.434118007326756 4.955561563564999
| 44> H -3.5974323897836995 -1.5958759495184798 3.2295637228091083
| 45> H -4.335750318493261 -1.1617777739585822 4.780839879079033
| 46> *
| 47>
| 48> % eprnmr
| 49> gtensor true
| 50> Nuclei = all H {aiso,adip,aorb,fgrad,rho}
| 51> Nuclei = all V {aiso,adip,aorb,fgrad,rho}
| 52> end
| 53>
| 54>                          ****END OF INPUT****

CARTESIAN COORDINATES (ANGSTROEM)
---------------------------------
  V      0.613755    0.867269    0.358817
  S      0.946936   -1.124933    1.737863
  S      1.806358   -0.489231   -1.287546
  S     -1.476370    1.057840    1.636212
  S     -0.526565    1.767317   -1.625222
  O      1.593943    2.010629    0.889197
  C      1.463405    0.293282   -2.831658
  C      0.497503    1.241048   -2.975038
  C     -0.216749   -0.941961    3.051371
  C     -1.222367   -0.025481    3.018609
  S      2.469237   -0.306126   -4.208079
  S      0.156853    2.040331   -4.559536
  S     -2.404616    0.161482    4.372526
  S      0.010542   -2.108449    4.413224
  C     -0.566405    0.671446   -5.568879
  C     -3.384896   -1.402353    4.287532
  C      1.231006   -1.171563   -5.270196
  C     -1.492056   -3.174052    4.288744
  C      0.433084   -0.283266   -6.229038
  H      0.565904   -1.729906   -4.602648
  H      1.817755   -1.898856   -5.845296
  H     -0.131274   -0.942614   -6.908564
  H      1.130376    0.294802   -6.850177
  H     -1.154962    1.178948   -6.343401
  H     -1.262654    0.126323   -4.922369
  C     -2.758159   -2.629268    4.956481
  H     -1.202156   -4.118308    4.766766
  H     -1.659813   -3.374840    3.224866
  H     -2.539626   -2.396330    6.007514
  H     -3.512179   -3.433261    4.955874
  H     -3.596673   -1.595019    3.229876
  H     -4.334991   -1.160921    4.781152

 Total Charge           Charge          ....   -2
 Multiplicity           Mult            ....    2
 Number of Electrons    NEL             ....  233
 Basis Dimension        Dim             ....  517

ORBITAL ENERGIES
----------------
                 SPIN UP ORBITALS
  NO   OCC          E(Eh)            E(eV)
   0   1.0000    -196.640280     -5350.8540
   1   1.0000     -88.676756     -2413.0172
   2   1.0000     -88.676696     -2413.0156
   3   1.0000     -88.676520     -2413.0108
   4   1.0000     -88.676481     -2413.0097
   5   1.0000     -88.612145     -2411.2590
   6   1.0000     -88.612121     -2411.2584
   7   1.0000     -88.611936     -2411.2534
   8   1.0000     -88.611934     -2411.2533
   9   1.0000     -22.016032      -599.0867
  10   1.0000     -18.857254      -513.1320
  11   1.0000     -18.522872      -504.0330
  12   1.0000     -18.517079      -503.8753
  13   1.0000     -18.517041      -503.8743
  14   1.0000     -10.016309      -272.5576
  15   1.0000     -10.016300      -272.5574
  16   1.0000     -10.016288      -272.5570
  17   1.0000     -10.016244      -272.5559
  18   1.0000     -10.005462      -272.2625
  19   1.0000     -10.005456      -272.2623
  20   1.0000      -9.992188      -271.9013
  21   1.0000      -9.992174      -271.9009
  22   1.0000      -9.991470      -271.8817
  23   1.0000      -9.991466      -271.8816
  24   1.0000      -7.730371      -210.3541
  25   1.0000      -7.730326      -210.3529
  26   1.0000      -7.730077      -210.3461
  27   1.0000      -7.730024      -210.3447
  28   1.0000      -7.666509      -208.6163
  29   1.0000      -7.666487      -208.6157
  30   1.0000      -7.666372      -208.6126
  31   1.0000      -7.666352      -208.6120
  32   1.0000      -5.695606      -154.9853
  33   1.0000      -5.695562      -154.9841
  34   1.0000      -5.695334      -154.9779
  35   1.0000      -5.695282      -154.9765
  36   1.0000      -5.691736      -154.8800
  37   1.0000      -5.691682      -154.8785
  38   1.0000      -5.691447      -154.8722
  39   1.0000      -5.691401      -154.8709
  40   1.0000      -5.685123      -154.7000
  41   1.0000      -5.685080      -154.6989
  42   1.0000      -5.684814      -154.6917
  43   1.0000      -5.684763      -154.6903
  44   1.0000      -5.631320      -153.2360
  45   1.0000      -5.631302      -153.2355
  46   1.0000      -5.631273      -153.2347
  47   1.0000      -5.631257      -153.2343
  48   1.0000      -5.624906      -153.0615
  49   1.0000      -5.624889      -153.0610
  50   1.0000      -5.624855      -153.0601
  51   1.0000      -5.624814      -153.0590
  52   1.0000      -5.624504      -153.0505
  53   1.0000      -5.624491      -153.0502
  54   1.0000      -5.624310      -153.0453
  55   1.0000      -5.624305      -153.0451
  56   1.0000      -2.409688       -65.5709
  57   1.0000      -1.451085       -39.4860
  58   1.0000      -1.439457       -39.1696
  59   1.0000      -1.438347       -39.1394
  60   1.0000      -0.642670       -17.4879
  61   1.0000      -0.642599       -17.4860
  62   1.0000      -0.618279       -16.8242
  63   1.0000      -0.592793       -16.1307
  64   1.0000      -0.592322       -16.1179
  65   1.0000      -0.575296       -15.6546
  66   1.0000      -0.575217       -15.6524
  67   1.0000      -0.491267       -13.3681
  68   1.0000      -0.489261       -13.3135
  69   1.0000      -0.486784       -13.2461
  70   1.0000      -0.485598       -13.2138
  71   1.0000      -0.422820       -11.5055
  72   1.0000      -0.419810       -11.4236
  73   1.0000      -0.412215       -11.2169
  74   1.0000      -0.406942       -11.0735
  75   1.0000      -0.375956       -10.2303
  76   1.0000      -0.372712       -10.1420
  77   1.0000      -0.292030        -7.9465
  78   1.0000      -0.291843        -7.9414
  79   1.0000      -0.276966        -7.5366
  80   1.0000      -0.276695        -7.5292
  81   1.0000      -0.260552        -7.0900
  82   1.0000      -0.255538        -6.9535
  83   1.0000      -0.241471        -6.5708
  84   1.0000      -0.238445        -6.4884
  85   1.0000      -0.195196        -5.3116
  86   1.0000      -0.192644        -5.2421
  87   1.0000      -0.191880        -5.2213
  88   1.0000      -0.191527        -5.2117
  89   1.0000      -0.184107        -5.0098
  90   1.0000      -0.183880        -5.0036
  91   1.0000      -0.180780        -4.9193
  92   1.0000      -0.150353        -4.0913
  93   1.0000      -0.149996        -4.0816
  94   1.0000      -0.143375        -3.9014
  95   1.0000      -0.143128        -3.8947
  96   1.0000      -0.141504        -3.8505
  97   1.0000      -0.097669        -2.6577
  98   1.0000      -0.096135        -2.6160
  99   1.0000      -0.089430        -2.4335
 100   1.0000      -0.083239        -2.2650
 101   1.0000      -0.081146        -2.2081
 102   1.0000      -0.080261        -2.1840
 103   1.0000      -0.069681        -1.8961
 104   1.0000      -0.049993        -1.3604
 105   1.0000      -0.038027        -1.0348
 106   1.0000      -0.037694        -1.0257
 107   1.0000      -0.035656        -0.9703
 108   1.0000      -0.032069        -0.8727
 109   1.0000      -0.012995        -0.3536
 110   1.0000      -0.004367        -0.1188
 111   1.0000      -0.003225        -0.0878
 112   1.0000       0.006403         0.1742
 113   1.0000       0.009409         0.2560
 114   1.0000       0.017381         0.4730
 115   1.0000       0.033622         0.9149
 116   1.0000       0.059966         1.6318
 117   0.0000       0.188206         5.1213
 118   0.0000       0.195621         5.3231
 119   0.0000       0.196305         5.3417
 120   0.0000       0.196599         5.3497
 121   0.0000       0.211376         5.7518

                 SPIN DOWN ORBITALS
  NO   OCC          E(Eh)            E(eV)
   0   1.0000    -196.640420     -5350.8579
   1   1.0000     -88.676768     -2413.0175
   2   1.0000     -88.676707     -2413.0159
   3   1.0000     -88.676534     -2413.0112
   4   1.0000     -88.676495     -2413.0101
   5   1.0000     -88.612298     -2411.2632
   6   1.0000     -88.612274     -2411.2626
   7   1.0000     -88.612102     -2411.2579
   8   1.0000     -88.612099     -2411.2578
   9   1.0000     -22.001361      -598.6875
  10   1.0000     -18.860827      -513.2292
  11   1.0000     -18.517740      -503.8933
  12   1.0000     -18.501596      -503.4540
  13   1.0000     -18.500895      -503.4349
  14   1.0000     -10.016304      -272.5575
  15   1.0000     -10.016295      -272.5572
  16   1.0000     -10.016285      -272.5570
  17   1.0000     -10.016242      -272.5558
  18   1.0000     -10.005462      -272.2625
  19   1.0000     -10.005456      -272.2623
  20   1.0000      -9.991940      -271.8945
  21   1.0000      -9.991920      -271.8940
  22   1.0000      -9.991220      -271.8749
  23   1.0000      -9.991208      -271.8746
  24   1.0000      -7.730384      -210.3544
  25   1.0000      -7.730338      -210.3532
  26   1.0000      -7.730092      -210.3465
  27   1.0000      -7.730039      -210.3451
  28   1.0000      -7.666663      -208.6205
  29   1.0000      -7.666640      -208.6199
  30   1.0000      -7.666516      -208.6165
  31   1.0000      -7.666495      -208.6159
  32   1.0000      -5.695622      -154.9858
  33   1.0000      -5.695577      -154.9845
  34   1.0000      -5.695352      -154.9784
  35   1.0000      -5.695300      -154.9770
  36   1.0000      -5.691755      -154.8805
  37   1.0000      -5.691701      -154.8790
  38   1.0000      -5.691469      -154.8728
  39   1.0000      -5.691423      -154.8715
  40   1.0000      -5.685137      -154.7004
  41   1.0000      -5.685094      -154.6993
  42   1.0000      -5.684833      -154.6922
  43   1.0000      -5.684782      -154.6908
  44   1.0000      -5.631492      -153.2407
  45   1.0000      -5.631473      -153.2402
  46   1.0000      -5.631443      -153.2394
  47   1.0000      -5.631427      -153.2389
  48   1.0000      -5.625318      -153.0727
  49   1.0000      -5.625304      -153.0723
  50   1.0000      -5.625224      -153.0701
  51   1.0000      -5.625182      -153.0690
  52   1.0000      -5.624641      -153.0543
  53   1.0000      -5.624627      -153.0539
  54   1.0000      -5.624443      -153.0489
  55   1.0000      -5.624437      -153.0487
  56   1.0000      -2.365510       -64.3688
  57   1.0000      -1.432239       -38.9732
  58   1.0000      -1.378060       -37.4989
  59   1.0000      -1.377385       -37.4806
  60   1.0000      -0.642622       -17.4866
  61   1.0000      -0.642547       -17.4846
  62   1.0000      -0.625930       -17.0324
  63   1.0000      -0.592608       -16.1257
  64   1.0000      -0.592116       -16.1123
  65   1.0000      -0.575290       -15.6544
  66   1.0000      -0.575212       -15.6523
  67   1.0000      -0.491300       -13.3690
  68   1.0000      -0.489300       -13.3145
  69   1.0000      -0.486784       -13.2461
  70   1.0000      -0.485618       -13.2143
  71   1.0000      -0.423062       -11.5121
  72   1.0000      -0.420119       -11.4320
  73   1.0000      -0.412228       -11.2173
  74   1.0000      -0.407041       -11.0762
  75   1.0000      -0.375910       -10.2290
  76   1.0000      -0.372741       -10.1428
  77   1.0000      -0.292005        -7.9459
  78   1.0000      -0.291833        -7.9412
  79   1.0000      -0.276941        -7.5360
  80   1.0000      -0.276681        -7.5289
  81   1.0000      -0.260349        -7.0845
  82   1.0000      -0.255502        -6.9526
  83   1.0000      -0.241366        -6.5679
  84   1.0000      -0.238371        -6.4864
  85   1.0000      -0.194752        -5.2995
  86   1.0000      -0.192592        -5.2407
  87   1.0000      -0.191828        -5.2199
  88   1.0000      -0.191502        -5.2110
  89   1.0000      -0.184047        -5.0082
  90   1.0000      -0.183829        -5.0023
  91   1.0000      -0.178704        -4.8628
  92   1.0000      -0.149727        -4.0743
  93   1.0000      -0.149658        -4.0724
  94   1.0000      -0.143190        -3.8964
  95   1.0000      -0.142804        -3.8859
  96   1.0000      -0.141413        -3.8481
  97   1.0000      -0.096389        -2.6229
  98   1.0000      -0.095387        -2.5956
  99   1.0000      -0.089580        -2.4376
 100   1.0000      -0.083319        -2.2672
 101   1.0000      -0.081985        -2.2309
 102   1.0000      -0.080693        -2.1958
 103   1.0000      -0.070980        -1.9315
 104   1.0000      -0.045920        -1.2495
 105   1.0000      -0.038199        -1.0395
 106   1.0000      -0.036963        -1.0058
 107   1.0000      -0.034622        -0.9421
 108   1.0000      -0.031958        -0.8696
 109   1.0000      -0.012093        -0.3291
 110   1.0000      -0.005692        -0.1549
 111   1.0000      -0.002188        -0.0595
 112   1.0000       0.007246         0.1972
 113   1.0000       0.011267         0.3066
 114   1.0000       0.033875         0.9218
 115   1.0000       0.059180         1.6104
 116   0.0000       0.185113         5.0372
 117   0.0000       0.189722         5.1626
 118   0.0000       0.196233         5.3398
 119   0.0000       0.196344         5.3428
 120   0.0000       0.196923         5.3585

MULLIKEN ATOMIC CHARGES AND SPIN POPULATIONS
--------------------------------------------
   0 V :    0.450366    1.198654
   1 S :   -0.241409   -0.026534
   2 S :   -0.241753   -0.026428
   3 S :   -0.267068   -0.021631
   4 S :   -0.267231   -0.021429
   5 O :   -0.506457   -0.138657
   6 C :   -0.120346    0.008176
   7 C :   -0.112342    0.009590
   8 C :   -0.118933    0.008067
   9 C :   -0.113413    0.009782
  10 S :   -0.043221    0.000010
  11 S :   -0.047396   -0.000393
  12 S :   -0.047457   -0.000393
  13 S :   -0.043184   -0.000057
  14 C :   -0.335142    0.000435
  15 C :   -0.333834    0.000473
  16 C :   -0.339936    0.000106
  17 C :   -0.340109    0.000159
  18 C :   -0.083398    0.000138
  19 H :    0.148588   -0.000064
  20 H :    0.101657    0.000003
  21 H :    0.044543    0.000036
  22 H :    0.078033    0.000018
  23 H :    0.100801    0.000040
  24 H :    0.144783   -0.000131
  25 C :   -0.083507    0.000135
  26 H :    0.101434    0.000012
  27 H :    0.148769   -0.000071
  28 H :    0.077863    0.000010
  29 H :    0.044576    0.000033
  30 H :    0.144228   -0.000138
  31 H :    0.100496    0.000051
Sum of atomic charges         :   -2.0000000

LOEWDIN ATOMIC CHARGES AND SPIN POPULATIONS
-------------------------------------------
   0 V :   -0.240008    1.153140
   1 S :    0.095637   -0.018145
   2 S :    0.095524   -0.018047
   3 S :    0.077939   -0.014575
   4 S :    0.077828   -0.014480
   5 O :   -0.350741   -0.124144
   6 C :   -0.551715    0.009188
   7 C :   -0.551700    0.010731
   8 C :   -0.550883    0.009041
   9 C :   -0.551983    0.010878
  10 S :    0.335816   -0.000871
  11 S :    0.334577   -0.001198
  12 S :    0.334761   -0.001193
  13 S :    0.335770   -0.000910
  14 C :   -0.294642    0.000226
  15 C :   -0.294863    0.000242
  16 C :   -0.293962    0.000097
  17 C :   -0.294090    0.000116
  18 C :   -0.185126   -0.000035
  19 H :    0.067155   -0.000018
  20 H :    0.047681   -0.000003
  21 H :    0.046640    0.000016
  22 H :    0.053767    0.000013
  23 H :    0.047355    0.000012
  24 H :    0.065915   -0.000035
  25 C :   -0.185204   -0.000040
  26 H :    0.047693    0.000003
  27 H :    0.067244   -0.000019
  28 H :    0.053827    0.000010
  29 H :    0.046614    0.000017
  30 H :    0.065800   -0.000035
  31 H :    0.047373    0.000018

  Mayer bond orders larger than 0.100000
B(  0-V ,  1-S ) :   0.7868 B(  0-V ,  2-S ) :   0.7888 B(  0-V ,  3-S ) :   0.7899
B(  0-V ,  4-S ) :   0.7871 B(  0-V ,  5-O ) :   2.1086 B(  1-S ,  8-C ) :   1.1450
B(  2-S ,  6-C ) :   1.1438 B(  3-S ,  9-C ) :   1.1264 B(  4-S ,  7-C ) :   1.1284
B(  6-C ,  7-C ) :   1.5187 B(  6-C , 10-S ) :   0.9567 B(  7-C , 11-S ) :   0.9472
B(  8-C ,  9-C ) :   1.5194 B(  8-C , 13-S ) :   0.9565 B(  9-C , 12-S ) :   0.9474
B( 10-S , 16-C ) :   1.0044 B( 11-S , 14-C ) :   1.0070 B( 12-S , 15-C ) :   1.0074
B( 13-S , 17-C ) :   1.0046 B( 14-C , 18-C ) :   0.8786 B( 14-C , 23-H ) :   0.9693
B( 14-C , 24-H ) :   0.9749 B( 15-C , 25-C ) :   0.8788 B( 15-C , 30-H ) :   0.9747
B( 15-C , 31-H ) :   0.9693 B( 16-C , 18-C ) :   0.8781 B( 16-C , 19-H ) :   0.9745
B( 16-C , 20-H ) :   0.9701 B( 17-C , 25-C ) :   0.8780 B( 17-C , 26-H ) :   0.9702
B( 17-C , 27-H ) :   0.9743 B( 18-C , 21-H ) :   0.9526 B( 18-C , 22-H ) :   0.9734
B( 25-C , 28-H ) :   0.9735 B( 25-C , 29-H ) :   0.9526

FINAL SINGLE POINT ENERGY     -4592.723441552807

DIPOLE MOMENT
-------------
                                X             Y             Z
Electronic contribution:     15.93603      19.60327       8.64766
Nuclear contribution   :    -17.74111     -21.88126      -9.64025
                        -----------------------------------------
Total Dipole Moment    :     -1.80508      -2.27799      -0.99258
                        -----------------------------------------
Magnitude (a.u.)       :      3.07128
Magnitude (Debye)      :      7.80658

Rotational constants in cm-1:     0.012742     0.002550     0.002428
Rotational constants in MHz :   381.998328    76.433009    72.783805

                             ****ORCA TERMINATED NORMALLY****
TOTAL RUN TIME: 0 days 0 hours 42 minutes 52 seconds 338 msec
