                         Program Version 5.0.4 -  RELEASE  -
|  1> ! nofrozencore ReducedPop printbasis
|  2> ! B3LYP TZVP
|  3>
|  4> %basis
|  5> newgto V "CP(PPP)" end
|  6> end
|  7>
|  8> %pal
|  9> nprocs 8
| 10> end
| 11>
| 12> % sym SymThresh 1e-2 end
| 13> * xyz -2 2
| 14> V -1.0949499866095351 -0.20920389951249682 0.03726230302254929
| 15> S -0.11164062621150242 -1.6921660840539974 -1.6478850509882248
| 16> S 0.00453045346723338 -1.64589496499264 1.6878890647412992
| 17> S -0.7131245469358967 1.5121654405280718 -1.6628722905127185
| 18> S -0.6273973733966296 1.5524249993865458 1.6759941534494367
| 19> O -2.662008486120445 -0.5119674704146042 0.08545916632527156
| 20> C 0.03375123772978515 -0.6682123627512782 3.158769066126402
| 21> C -0.22928817521736503 0.6702216922020171 3.15329832287723
| 22> C -0.17520083832034558 -0.7432533456933417 -3.1387637953784453
| 23> C -0.425739343955748 0.5910762654961071 -3.145325697998429
| 24> S 0.4716110501406926 -1.5650419699595028 4.657197624558944
| 25> S -0.15977921010347954 1.6779717017222116 4.643717677404622
| 26> S -0.4564854104539474 1.5707375811470063 -4.66165811144577
| 27> S 0.15319966759908338 -1.6815451830426098 -4.646416973180488
| 28> C 1.6396273222268303 1.6589378464545799 5.054376597041906
| 29> C 1.3035798650856003 1.5308792235790902 -5.220407926556152
| 30> C 2.1322385489283757 -0.8719820941724271 5.066990446303257
| 31> C 1.779849216499634 -1.01255950472839 -5.209448053140643
| 32> C 2.1095297407319675 0.44127013820989447 5.918717198487402
| 33> H 2.5990171551640864 -0.9937092376142483 4.061457581078484
| 34> H 2.6771514471580984 -1.4893570891968755 5.829150469187197
| 35> H 3.164740180276902 0.6475764911056602 6.177419346959797
| 36> H 1.57541902360437 0.34265735154753557 6.875773868816868
| 37> H 1.9149460064794015 2.4430728995115585 5.808254994189459
| 38> H 2.0266557511032297 1.935468879054803 4.045577384649013
| 39> C 1.7453699771469227 0.2939940118927552 -5.97827185394846
| 40> H 2.187664757672588 -1.8564813037980048 -5.777956266271215
| 41> H 2.438026561527755 -0.8419340582362451 -4.349278835712997
| 42> H 1.0623015346805074 0.16248968482753604 -6.824194704818224
| 43> H 2.7481094460519415 0.47999253164660827 -6.39521452341089
| 44> H 1.9766162669990417 1.6158085235238977 -4.359009249728578
| 45> H 1.380832661137153 2.460677064652236 -5.7958896684662955
| 46> *
| 47>
| 48> % eprnmr
| 49> gtensor true
| 50> Nuclei = all H {aiso,adip,aorb,fgrad,rho}
| 51> Nuclei = all V {aiso,adip,aorb,fgrad,rho}
| 52> end
| 53>
| 54>                          ****END OF INPUT****

CARTESIAN COORDINATES (ANGSTROEM)
---------------------------------
  V     -1.096108   -0.209431    0.037383
  S     -0.112799   -1.692393   -1.647764
  S      0.003372   -1.646122    1.688010
  S     -0.714283    1.511938   -1.662752
  S     -0.628556    1.552198    1.676115
  O     -2.663167   -0.512195    0.085580
  C      0.032593   -0.668440    3.158890
  C     -0.230447    0.669994    3.153419
  C     -0.176359   -0.743481   -3.138643
  C     -0.426898    0.590849   -3.145205
  S      0.470453   -1.565269    4.657318
  S     -0.160938    1.677744    4.643838
  S     -0.457644    1.570510   -4.661537
  S      0.152041   -1.681772   -4.646296
  C      1.638469    1.658711    5.054497
  C      1.302421    1.530652   -5.220287
  C      2.131080   -0.872209    5.067111
  C      1.778691   -1.012787   -5.209327
  C      2.108371    0.441043    5.918838
  H      2.597859   -0.993936    4.061578
  H      2.675993   -1.489584    5.829271
  H      3.163582    0.647349    6.177540
  H      1.574261    0.342430    6.875895
  H      1.913788    2.442846    5.808376
  H      2.025497    1.935242    4.045698
  C      1.744212    0.293767   -5.978151
  H      2.186506   -1.856709   -5.777836
  H      2.436868   -0.842161   -4.349158
  H      1.061143    0.162262   -6.824074
  H      2.746951    0.479765   -6.395094
  H      1.975458    1.615581   -4.358889
  H      1.379674    2.460450   -5.795769

 Total Charge           Charge          ....   -2
 Multiplicity           Mult            ....    2
 Number of Electrons    NEL             ....  233
 Basis Dimension        Dim             ....  517

ORBITAL ENERGIES
----------------
                 SPIN UP ORBITALS
  NO   OCC          E(Eh)            E(eV)
   0   1.0000    -196.640722     -5350.8661
   1   1.0000     -88.677811     -2413.0459
   2   1.0000     -88.677800     -2413.0456
   3   1.0000     -88.674655     -2412.9600
   4   1.0000     -88.674548     -2412.9571
   5   1.0000     -88.613218     -2411.2883
   6   1.0000     -88.613123     -2411.2857
   7   1.0000     -88.612299     -2411.2632
   8   1.0000     -88.612293     -2411.2631
   9   1.0000     -22.016514      -599.0998
  10   1.0000     -18.857767      -513.1459
  11   1.0000     -18.523344      -504.0458
  12   1.0000     -18.517561      -503.8885
  13   1.0000     -18.517523      -503.8874
  14   1.0000     -10.020371      -272.6681
  15   1.0000     -10.020356      -272.6678
  16   1.0000     -10.016437      -272.5611
  17   1.0000     -10.016417      -272.5606
  18   1.0000     -10.015955      -272.5480
  19   1.0000     -10.002917      -272.1932
  20   1.0000      -9.993118      -271.9266
  21   1.0000      -9.992421      -271.9076
  22   1.0000      -9.992068      -271.8980
  23   1.0000      -9.991346      -271.8783
  24   1.0000      -7.731409      -210.3823
  25   1.0000      -7.731400      -210.3821
  26   1.0000      -7.728467      -210.3023
  27   1.0000      -7.728390      -210.3002
  28   1.0000      -7.667649      -208.6473
  29   1.0000      -7.667610      -208.6463
  30   1.0000      -7.666755      -208.6230
  31   1.0000      -7.666703      -208.6216
  32   1.0000      -5.696678      -155.0145
  33   1.0000      -5.696672      -155.0143
  34   1.0000      -5.693632      -154.9316
  35   1.0000      -5.693558      -154.9296
  36   1.0000      -5.692754      -154.9077
  37   1.0000      -5.692750      -154.9076
  38   1.0000      -5.689846      -154.8286
  39   1.0000      -5.689764      -154.8264
  40   1.0000      -5.686149      -154.7280
  41   1.0000      -5.686141      -154.7278
  42   1.0000      -5.683222      -154.6483
  43   1.0000      -5.683140      -154.6461
  44   1.0000      -5.632461      -153.2671
  45   1.0000      -5.632419      -153.2659
  46   1.0000      -5.631599      -153.2436
  47   1.0000      -5.631563      -153.2426
  48   1.0000      -5.626091      -153.0937
  49   1.0000      -5.626024      -153.0919
  50   1.0000      -5.625665      -153.0821
  51   1.0000      -5.625619      -153.0809
  52   1.0000      -5.625191      -153.0692
  53   1.0000      -5.625151      -153.0681
  54   1.0000      -5.624709      -153.0561
  55   1.0000      -5.624682      -153.0554
  56   1.0000      -2.410216       -65.5853
  57   1.0000      -1.451569       -39.4992
  58   1.0000      -1.440005       -39.1845
  59   1.0000      -1.438924       -39.1551
  60   1.0000      -0.646250       -17.5854
  61   1.0000      -0.639636       -17.4054
  62   1.0000      -0.618775       -16.8377
  63   1.0000      -0.595065       -16.1925
  64   1.0000      -0.591822       -16.1043
  65   1.0000      -0.576705       -15.6930
  66   1.0000      -0.574202       -15.6248
  67   1.0000      -0.492992       -13.4150
  68   1.0000      -0.490839       -13.3564
  69   1.0000      -0.487802       -13.2738
  70   1.0000      -0.484703       -13.1895
  71   1.0000      -0.423026       -11.5111
  72   1.0000      -0.419213       -11.4074
  73   1.0000      -0.412625       -11.2281
  74   1.0000      -0.407238       -11.0815
  75   1.0000      -0.375860       -10.2277
  76   1.0000      -0.370839       -10.0910
  77   1.0000      -0.299043        -8.1374
  78   1.0000      -0.280259        -7.6262
  79   1.0000      -0.274886        -7.4800
  80   1.0000      -0.268890        -7.3169
  81   1.0000      -0.265192        -7.2162
  82   1.0000      -0.261454        -7.1145
  83   1.0000      -0.249331        -6.7846
  84   1.0000      -0.232742        -6.3332
  85   1.0000      -0.217715        -5.9243
  86   1.0000      -0.202508        -5.5105
  87   1.0000      -0.194151        -5.2831
  88   1.0000      -0.190682        -5.1887
  89   1.0000      -0.181488        -4.9386
  90   1.0000      -0.175417        -4.7734
  91   1.0000      -0.161812        -4.4031
  92   1.0000      -0.151250        -4.1157
  93   1.0000      -0.150116        -4.0849
  94   1.0000      -0.142108        -3.8670
  95   1.0000      -0.139345        -3.7918
  96   1.0000      -0.134673        -3.6646
  97   1.0000      -0.097713        -2.6589
  98   1.0000      -0.094158        -2.5622
  99   1.0000      -0.089599        -2.4381
 100   1.0000      -0.083275        -2.2660
 101   1.0000      -0.080957        -2.2029
 102   1.0000      -0.079442        -2.1617
 103   1.0000      -0.070053        -1.9062
 104   1.0000      -0.050620        -1.3774
 105   1.0000      -0.038543        -1.0488
 106   1.0000      -0.038475        -1.0470
 107   1.0000      -0.035099        -0.9551
 108   1.0000      -0.031962        -0.8697
 109   1.0000      -0.013467        -0.3665
 110   1.0000      -0.005010        -0.1363
 111   1.0000      -0.003211        -0.0874
 112   1.0000       0.005513         0.1500
 113   1.0000       0.010518         0.2862
 114   1.0000       0.015682         0.4267
 115   1.0000       0.033032         0.8988
 116   1.0000       0.059130         1.6090
 117   0.0000       0.186834         5.0840
 118   0.0000       0.192987         5.2514
 119   0.0000       0.194683         5.2976
 120   0.0000       0.196205         5.3390
 121   0.0000       0.210759         5.7350

                 SPIN DOWN ORBITALS
  NO   OCC          E(Eh)            E(eV)
   0   1.0000    -196.640864     -5350.8699
   1   1.0000     -88.677824     -2413.0463
   2   1.0000     -88.677813     -2413.0460
   3   1.0000     -88.674668     -2412.9604
   4   1.0000     -88.674561     -2412.9575
   5   1.0000     -88.613377     -2411.2926
   6   1.0000     -88.613281     -2411.2900
   7   1.0000     -88.612460     -2411.2676
   8   1.0000     -88.612453     -2411.2674
   9   1.0000     -22.001841      -598.7005
  10   1.0000     -18.861357      -513.2436
  11   1.0000     -18.518210      -503.9061
  12   1.0000     -18.502064      -503.4668
  13   1.0000     -18.501389      -503.4484
  14   1.0000     -10.020367      -272.6680
  15   1.0000     -10.020352      -272.6677
  16   1.0000     -10.016433      -272.5610
  17   1.0000     -10.016413      -272.5605
  18   1.0000     -10.015955      -272.5480
  19   1.0000     -10.002917      -272.1932
  20   1.0000      -9.992863      -271.9196
  21   1.0000      -9.992169      -271.9007
  22   1.0000      -9.991814      -271.8911
  23   1.0000      -9.991093      -271.8715
  24   1.0000      -7.731423      -210.3827
  25   1.0000      -7.731415      -210.3825
  26   1.0000      -7.728481      -210.3027
  27   1.0000      -7.728404      -210.3006
  28   1.0000      -7.667797      -208.6514
  29   1.0000      -7.667757      -208.6503
  30   1.0000      -7.666904      -208.6271
  31   1.0000      -7.666852      -208.6256
  32   1.0000      -5.696695      -155.0150
  33   1.0000      -5.696689      -155.0148
  34   1.0000      -5.693649      -154.9321
  35   1.0000      -5.693574      -154.9300
  36   1.0000      -5.692774      -154.9083
  37   1.0000      -5.692770      -154.9082
  38   1.0000      -5.689866      -154.8291
  39   1.0000      -5.689784      -154.8269
  40   1.0000      -5.686166      -154.7284
  41   1.0000      -5.686158      -154.7282
  42   1.0000      -5.683239      -154.6488
  43   1.0000      -5.683157      -154.6466
  44   1.0000      -5.632633      -153.2717
  45   1.0000      -5.632590      -153.2706
  46   1.0000      -5.631771      -153.2483
  47   1.0000      -5.631736      -153.2473
  48   1.0000      -5.626473      -153.1041
  49   1.0000      -5.626407      -153.1023
  50   1.0000      -5.625806      -153.0860
  51   1.0000      -5.625758      -153.0847
  52   1.0000      -5.625584      -153.0799
  53   1.0000      -5.625545      -153.0789
  54   1.0000      -5.624845      -153.0598
  55   1.0000      -5.624817      -153.0590
  56   1.0000      -2.366023       -64.3828
  57   1.0000      -1.432725       -38.9864
  58   1.0000      -1.378579       -37.5130
  59   1.0000      -1.377938       -37.4956
  60   1.0000      -0.646205       -17.5841
  61   1.0000      -0.639573       -17.4037
  62   1.0000      -0.626466       -17.0470
  63   1.0000      -0.594864       -16.1871
  64   1.0000      -0.591640       -16.0994
  65   1.0000      -0.576701       -15.6928
  66   1.0000      -0.574195       -15.6246
  67   1.0000      -0.493016       -13.4156
  68   1.0000      -0.490874       -13.3574
  69   1.0000      -0.487811       -13.2740
  70   1.0000      -0.484730       -13.1902
  71   1.0000      -0.423278       -11.5180
  72   1.0000      -0.419501       -11.4152
  73   1.0000      -0.412635       -11.2284
  74   1.0000      -0.407338       -11.0842
  75   1.0000      -0.375832       -10.2269
  76   1.0000      -0.370842       -10.0911
  77   1.0000      -0.299025        -8.1369
  78   1.0000      -0.280240        -7.6257
  79   1.0000      -0.274859        -7.4793
  80   1.0000      -0.268877        -7.3165
  81   1.0000      -0.265181        -7.2159
  82   1.0000      -0.261286        -7.1100
  83   1.0000      -0.249153        -6.7798
  84   1.0000      -0.232686        -6.3317
  85   1.0000      -0.217703        -5.9240
  86   1.0000      -0.202441        -5.5087
  87   1.0000      -0.193641        -5.2692
  88   1.0000      -0.190595        -5.1863
  89   1.0000      -0.179439        -4.8828
  90   1.0000      -0.175344        -4.7713
  91   1.0000      -0.161806        -4.4030
  92   1.0000      -0.150575        -4.0974
  93   1.0000      -0.149858        -4.0778
  94   1.0000      -0.141873        -3.8605
  95   1.0000      -0.139165        -3.7869
  96   1.0000      -0.134335        -3.6554
  97   1.0000      -0.096215        -2.6181
  98   1.0000      -0.093691        -2.5495
  99   1.0000      -0.089760        -2.4425
 100   1.0000      -0.083273        -2.2660
 101   1.0000      -0.082687        -2.2500
 102   1.0000      -0.079232        -2.1560
 103   1.0000      -0.071355        -1.9417
 104   1.0000      -0.046393        -1.2624
 105   1.0000      -0.038668        -1.0522
 106   1.0000      -0.037603        -1.0232
 107   1.0000      -0.034236        -0.9316
 108   1.0000      -0.031899        -0.8680
 109   1.0000      -0.012557        -0.3417
 110   1.0000      -0.006351        -0.1728
 111   1.0000      -0.002319        -0.0631
 112   1.0000       0.006431         0.1750
 113   1.0000       0.011405         0.3103
 114   1.0000       0.033279         0.9056
 115   1.0000       0.058338         1.5875
 116   0.0000       0.184721         5.0265
 117   0.0000       0.188008         5.1159
 118   0.0000       0.193046         5.2530
 119   0.0000       0.195261         5.3133
 120   0.0000       0.196448         5.3456

MULLIKEN ATOMIC CHARGES AND SPIN POPULATIONS
--------------------------------------------
   0 V :    0.447414    1.199537
   1 S :   -0.254019   -0.024329
   2 S :   -0.251034   -0.023935
   3 S :   -0.254294   -0.024273
   4 S :   -0.251342   -0.023854
   5 O :   -0.506086   -0.139075
   6 C :   -0.131611    0.008864
   7 C :   -0.130172    0.008858
   8 C :   -0.110922    0.008918
   9 C :   -0.111681    0.008861
  10 S :   -0.039766   -0.000122
  11 S :   -0.039614   -0.000159
  12 S :   -0.046466   -0.000213
  13 S :   -0.046586   -0.000241
  14 C :   -0.333843    0.000284
  15 C :   -0.332143    0.000284
  16 C :   -0.332631    0.000273
  17 C :   -0.332038    0.000304
  18 C :   -0.083850    0.000035
  19 H :    0.160349   -0.000096
  20 H :    0.077688    0.000007
  21 H :    0.044533    0.000051
  22 H :    0.098387    0.000015
  23 H :    0.077729    0.000008
  24 H :    0.160855   -0.000095
  25 C :   -0.086227    0.000179
  26 H :    0.105891    0.000037
  27 H :    0.137748   -0.000100
  28 H :    0.072519   -0.000001
  29 H :    0.047346    0.000038
  30 H :    0.137974   -0.000096
  31 H :    0.105892    0.000034
Sum of atomic charges         :   -2.0000000

LOEWDIN ATOMIC CHARGES AND SPIN POPULATIONS
-------------------------------------------
   0 V :   -0.242988    1.153489
   1 S :    0.087747   -0.016517
   2 S :    0.090454   -0.016152
   3 S :    0.087515   -0.016457
   4 S :    0.090237   -0.016122
   5 O :   -0.350524   -0.124505
   6 C :   -0.557256    0.009998
   7 C :   -0.556765    0.009953
   8 C :   -0.551135    0.009950
   9 C :   -0.551533    0.009975
  10 S :    0.333820   -0.001011
  11 S :    0.333692   -0.001034
  12 S :    0.337898   -0.001052
  13 S :    0.337881   -0.001065
  14 C :   -0.308528    0.000163
  15 C :   -0.294033    0.000169
  16 C :   -0.308560    0.000155
  17 C :   -0.294126    0.000179
  18 C :   -0.182624   -0.000038
  19 H :    0.077249   -0.000025
  20 H :    0.048816   -0.000009
  21 H :    0.044881    0.000018
  22 H :    0.062173    0.000009
  23 H :    0.048835   -0.000008
  24 H :    0.077400   -0.000024
  25 C :   -0.187108   -0.000038
  26 H :    0.049017    0.000015
  27 H :    0.065090   -0.000029
  28 H :    0.050293    0.000010
  29 H :    0.048027    0.000017
  30 H :    0.065166   -0.000028
  31 H :    0.048990    0.000014

  Mayer bond orders larger than 0.100000
B(  0-V ,  1-S ) :   0.7898 B(  0-V ,  2-S ) :   0.7887 B(  0-V ,  3-S ) :   0.7917
B(  0-V ,  4-S ) :   0.7861 B(  0-V ,  5-O ) :   2.1085 B(  1-S ,  8-C ) :   1.1385
B(  2-S ,  6-C ) :   1.1361 B(  3-S ,  9-C ) :   1.1375 B(  4-S ,  7-C ) :   1.1374
B(  6-C ,  7-C ) :   1.4964 B(  6-C , 10-S ) :   0.9725 B(  7-C , 11-S ) :   0.9723
B(  8-C ,  9-C ) :   1.5221 B(  8-C , 13-S ) :   0.9484 B(  9-C , 12-S ) :   0.9489
B( 10-S , 16-C ) :   1.0046 B( 11-S , 14-C ) :   1.0046 B( 12-S , 15-C ) :   1.0063
B( 13-S , 17-C ) :   1.0070 B( 14-C , 18-C ) :   0.8618 B( 14-C , 23-H ) :   0.9652
B( 14-C , 24-H ) :   0.9703 B( 15-C , 25-C ) :   0.8818 B( 15-C , 30-H ) :   0.9744
B( 15-C , 31-H ) :   0.9715 B( 16-C , 18-C ) :   0.8619 B( 16-C , 19-H ) :   0.9703
B( 16-C , 20-H ) :   0.9651 B( 17-C , 25-C ) :   0.8820 B( 17-C , 26-H ) :   0.9715
B( 17-C , 27-H ) :   0.9743 B( 18-C , 21-H ) :   0.9664 B( 18-C , 22-H ) :   0.9639
B( 25-C , 28-H ) :   0.9742 B( 25-C , 29-H ) :   0.9516

FINAL SINGLE POINT ENERGY     -4592.688805213478

DIPOLE MOMENT
-------------
                                X             Y             Z
Electronic contribution:    -26.23848      -5.00096       0.66114
Nuclear contribution   :     29.21684       5.56903      -0.83197
                        -----------------------------------------
Total Dipole Moment    :      2.97836       0.56807      -0.17083
                        -----------------------------------------
Magnitude (a.u.)       :      3.03686
Magnitude (Debye)      :      7.71908

Rotational constants in cm-1:     0.012778     0.002548     0.002431
Rotational constants in MHz :   383.074037    76.383787    72.871345

                             ****ORCA TERMINATED NORMALLY****
TOTAL RUN TIME: 0 days 0 hours 27 minutes 39 seconds 584 msec
