                         Program Version 5.0.4 -  RELEASE  -
|  1> ! nofrozencore ReducedPop printbasis
|  2> ! B3LYP TZVP
|  3>
|  4> %basis
|  5> newgto V "CP(PPP)" end
|  6> end
|  7>
|  8> %pal
|  9> nprocs 4
| 10> end
| 11>
| 12> % sym SymThresh 1e-2 end
| 13> * xyz -2 2
| 14> V 0.9703490563161098 -0.5354511399306662 -0.14209495302221434
| 15> S -0.7619636229031793 -2.1855957782725954 -0.6614070882862302
| 16> S 0.5407836777974613 0.6233842179811405 -2.258018701049195
| 17> S 0.15993162030543676 -0.8259976616371887 2.1575416429692322
| 18> S 1.3825832602067516 1.7359179678239727 0.6931444005277396
| 19> O 2.435044640069359 -1.1976974066182473 -0.08858167092243892
| 20> C 1.171180909672397 2.2469049690314065 -1.9999540415574333
| 21> C 1.5985852235493863 2.699063797911421 -0.7885587028817413
| 22> C -1.2045168905614723 -2.8559596157831177 0.9055416829108802
| 23> C -0.7661746687895493 -2.3445111968424093 2.0889146240389525
| 24> S 1.2462752643446322 3.150938618107 -3.556138613748157
| 25> S 2.270220633813083 4.3732472303417085 -0.655234358799887
| 26> S -1.255304660626203 -3.141786645712558 3.6377341943458936
| 27> S -2.2285807819180365 -4.324018144574405 0.7037285293534086
| 28> C 0.7636122008077045 5.3478884220349645 -1.1773332142715571
| 29> C -3.104428138653963 -2.9058055993876035 3.5341099559704054
| 30> C -0.03945137626124458 4.45915534683169 -3.4716143813517726
| 31> C -3.9139919101905107 -3.8697080547748093 1.2728269298173243
| 32> C 0.46121343885255084 5.6405943633325535 -2.6594802671910984
| 33> H -0.9709056502022682 4.039459318479532 -3.07495299367782
| 34> H -0.21200714080002378 4.752671118662876 -4.516625214428531
| 35> H -0.30208941507548365 6.440263531466338 -2.668539646780066
| 36> H 1.3559649433997534 6.0464909639552085 -3.1447655064128273
| 37> H 0.8660773102717445 6.312042159506196 -0.6604374133215221
| 38> H -0.08155969010105206 4.819590048417855 -0.7242584398598327
| 39> C -3.999958823643365 -3.9122251694584507 2.7886288408173625
| 40> H -4.57368369845254 -4.627476709674705 0.8277691271536152
| 41> H -4.191093389642526 -2.891942608552475 0.8628556679279752
| 42> H -3.7690549627208028 -4.929063674825194 3.125528485081914
| 43> H -5.038084646315727 -3.697006777479556 3.10035297096588
| 44> H -3.2373650720421057 -1.9045723337242055 3.111819374380709
| 45> H -3.437572303576325 -2.870165959480573 4.580297074489592
| 46> *
| 47>
| 48> % eprnmr
| 49> gtensor true
| 50> Nuclei = all H {aiso,adip,aorb,fgrad,rho}
| 51> Nuclei = all V {aiso,adip,aorb,fgrad,rho}
| 52> end
| 53>
| 54>                          ****END OF INPUT****

CARTESIAN COORDINATES (ANGSTROEM)
---------------------------------
  V      0.971427   -0.535929   -0.142225
  S     -0.760885   -2.186074   -0.661537
  S      0.541862    0.622906   -2.258149
  S      0.161010   -0.826476    2.157411
  S      1.383662    1.735440    0.693014
  O      2.436123   -1.198176   -0.088712
  C      1.172259    2.246427   -2.000084
  C      1.599663    2.698585   -0.788689
  C     -1.203439   -2.856438    0.905411
  C     -0.765096   -2.344990    2.088784
  S      1.247354    3.150460   -3.556269
  S      2.271299    4.372769   -0.655365
  S     -1.254226   -3.142265    3.637604
  S     -2.227503   -4.324496    0.703598
  C      0.764690    5.347410   -1.177463
  C     -3.103350   -2.906284    3.533980
  C     -0.038373    4.458677   -3.471745
  C     -3.912914   -3.870186    1.272697
  C      0.462292    5.640116   -2.659611
  H     -0.969827    4.038981   -3.075083
  H     -0.210929    4.752193   -4.516755
  H     -0.301011    6.439785   -2.668670
  H      1.357043    6.046013   -3.144896
  H      0.867156    6.311564   -0.660568
  H     -0.080481    4.819112   -0.724389
  C     -3.998881   -3.912703    2.788499
  H     -4.572605   -4.627955    0.827639
  H     -4.190015   -2.892421    0.862725
  H     -3.767977   -4.929542    3.125398
  H     -5.037006   -3.697485    3.100223
  H     -3.236287   -1.905051    3.111689
  H     -3.436494   -2.870644    4.580167

 Total Charge           Charge          ....   -2
 Multiplicity           Mult            ....    2
 Number of Electrons    NEL             ....  233
 Basis Dimension        Dim             ....  517

ORBITAL ENERGIES
----------------
                 SPIN UP ORBITALS
  NO   OCC          E(Eh)            E(eV)
   0   1.0000    -196.641642     -5350.8911
   1   1.0000     -88.680085     -2413.1078
   2   1.0000     -88.679909     -2413.1030
   3   1.0000     -88.673607     -2412.9315
   4   1.0000     -88.673516     -2412.9290
   5   1.0000     -88.614254     -2411.3165
   6   1.0000     -88.614185     -2411.3146
   7   1.0000     -88.610701     -2411.2198
   8   1.0000     -88.610678     -2411.2191
   9   1.0000     -22.017299      -599.1212
  10   1.0000     -18.855793      -513.0922
  11   1.0000     -18.524153      -504.0678
  12   1.0000     -18.518363      -503.9103
  13   1.0000     -18.518303      -503.9086
  14   1.0000     -10.016881      -272.5732
  15   1.0000     -10.016759      -272.5699
  16   1.0000     -10.016036      -272.5502
  17   1.0000     -10.015932      -272.5474
  18   1.0000     -10.005573      -272.2655
  19   1.0000     -10.005438      -272.2618
  20   1.0000      -9.993747      -271.9437
  21   1.0000      -9.993604      -271.9398
  22   1.0000      -9.990513      -271.8557
  23   1.0000      -9.990427      -271.8533
  24   1.0000      -7.733112      -210.4287
  25   1.0000      -7.732969      -210.4248
  26   1.0000      -7.727707      -210.2816
  27   1.0000      -7.727629      -210.2795
  28   1.0000      -7.668186      -208.6619
  29   1.0000      -7.668114      -208.6600
  30   1.0000      -7.665512      -208.5892
  31   1.0000      -7.665423      -208.5868
  32   1.0000      -5.698363      -155.0603
  33   1.0000      -5.698217      -155.0564
  34   1.0000      -5.694569      -154.9571
  35   1.0000      -5.694419      -154.9530
  36   1.0000      -5.692973      -154.9137
  37   1.0000      -5.692898      -154.9116
  38   1.0000      -5.688980      -154.8050
  39   1.0000      -5.688905      -154.8030
  40   1.0000      -5.687900      -154.7756
  41   1.0000      -5.687759      -154.7718
  42   1.0000      -5.682386      -154.6256
  43   1.0000      -5.682303      -154.6233
  44   1.0000      -5.633263      -153.2889
  45   1.0000      -5.633172      -153.2864
  46   1.0000      -5.630196      -153.2054
  47   1.0000      -5.630121      -153.2034
  48   1.0000      -5.626657      -153.1091
  49   1.0000      -5.626605      -153.1077
  50   1.0000      -5.625981      -153.0907
  51   1.0000      -5.625906      -153.0887
  52   1.0000      -5.623898      -153.0341
  53   1.0000      -5.623839      -153.0324
  54   1.0000      -5.623624      -153.0266
  55   1.0000      -5.623547      -153.0245
  56   1.0000      -2.410383       -65.5899
  57   1.0000      -1.450572       -39.4721
  58   1.0000      -1.440405       -39.1954
  59   1.0000      -1.439150       -39.1612
  60   1.0000      -0.643691       -17.5157
  61   1.0000      -0.643608       -17.5135
  62   1.0000      -0.616227       -16.7684
  63   1.0000      -0.593952       -16.1623
  64   1.0000      -0.593524       -16.1506
  65   1.0000      -0.574123       -15.6227
  66   1.0000      -0.573854       -15.6154
  67   1.0000      -0.490708       -13.3529
  68   1.0000      -0.488952       -13.3051
  69   1.0000      -0.487488       -13.2652
  70   1.0000      -0.485960       -13.2236
  71   1.0000      -0.423285       -11.5182
  72   1.0000      -0.420097       -11.4314
  73   1.0000      -0.411663       -11.2019
  74   1.0000      -0.406490       -11.0612
  75   1.0000      -0.376368       -10.2415
  76   1.0000      -0.373037       -10.1508
  77   1.0000      -0.292135        -7.9494
  78   1.0000      -0.291921        -7.9436
  79   1.0000      -0.279521        -7.6061
  80   1.0000      -0.279003        -7.5921
  81   1.0000      -0.258345        -7.0299
  82   1.0000      -0.253250        -6.8913
  83   1.0000      -0.241553        -6.5730
  84   1.0000      -0.238946        -6.5021
  85   1.0000      -0.196954        -5.3594
  86   1.0000      -0.196019        -5.3339
  87   1.0000      -0.192231        -5.2309
  88   1.0000      -0.186934        -5.0867
  89   1.0000      -0.184352        -5.0165
  90   1.0000      -0.183942        -5.0053
  91   1.0000      -0.179084        -4.8731
  92   1.0000      -0.152995        -4.1632
  93   1.0000      -0.149499        -4.0681
  94   1.0000      -0.142636        -3.8813
  95   1.0000      -0.142048        -3.8653
  96   1.0000      -0.138931        -3.7805
  97   1.0000      -0.098692        -2.6855
  98   1.0000      -0.093724        -2.5504
  99   1.0000      -0.090106        -2.4519
 100   1.0000      -0.082881        -2.2553
 101   1.0000      -0.079792        -2.1712
 102   1.0000      -0.076487        -2.0813
 103   1.0000      -0.067433        -1.8350
 104   1.0000      -0.050645        -1.3781
 105   1.0000      -0.038412        -1.0453
 106   1.0000      -0.037802        -1.0286
 107   1.0000      -0.036056        -0.9811
 108   1.0000      -0.032009        -0.8710
 109   1.0000      -0.014310        -0.3894
 110   1.0000      -0.003737        -0.1017
 111   1.0000      -0.001396        -0.0380
 112   1.0000       0.006858         0.1866
 113   1.0000       0.007226         0.1966
 114   1.0000       0.020107         0.5471
 115   1.0000       0.033852         0.9211
 116   1.0000       0.060172         1.6374
 117   0.0000       0.185732         5.0540
 118   0.0000       0.192551         5.2396
 119   0.0000       0.196386         5.3439
 120   0.0000       0.196470         5.3462
 121   0.0000       0.208430         5.6717

                 SPIN DOWN ORBITALS
  NO   OCC          E(Eh)            E(eV)
   0   1.0000    -196.641776     -5350.8948
   1   1.0000     -88.680094     -2413.1080
   2   1.0000     -88.679918     -2413.1032
   3   1.0000     -88.673625     -2412.9320
   4   1.0000     -88.673534     -2412.9295
   5   1.0000     -88.614423     -2411.3211
   6   1.0000     -88.614355     -2411.3192
   7   1.0000     -88.610851     -2411.2238
   8   1.0000     -88.610828     -2411.2232
   9   1.0000     -22.002549      -598.7198
  10   1.0000     -18.859509      -513.1933
  11   1.0000     -18.518923      -503.9255
  12   1.0000     -18.502829      -503.4876
  13   1.0000     -18.502100      -503.4677
  14   1.0000     -10.016879      -272.5731
  15   1.0000     -10.016757      -272.5698
  16   1.0000     -10.016030      -272.5500
  17   1.0000     -10.015926      -272.5472
  18   1.0000     -10.005573      -272.2655
  19   1.0000     -10.005437      -272.2618
  20   1.0000      -9.993516      -271.9374
  21   1.0000      -9.993374      -271.9335
  22   1.0000      -9.990245      -271.8484
  23   1.0000      -9.990163      -271.8462
  24   1.0000      -7.733122      -210.4289
  25   1.0000      -7.732979      -210.4251
  26   1.0000      -7.727726      -210.2821
  27   1.0000      -7.727648      -210.2800
  28   1.0000      -7.668342      -208.6662
  29   1.0000      -7.668271      -208.6643
  30   1.0000      -7.665652      -208.5930
  31   1.0000      -7.665564      -208.5906
  32   1.0000      -5.698377      -155.0607
  33   1.0000      -5.698231      -155.0567
  34   1.0000      -5.694586      -154.9576
  35   1.0000      -5.694437      -154.9535
  36   1.0000      -5.692993      -154.9142
  37   1.0000      -5.692918      -154.9122
  38   1.0000      -5.689004      -154.8057
  39   1.0000      -5.688929      -154.8036
  40   1.0000      -5.687906      -154.7758
  41   1.0000      -5.687765      -154.7719
  42   1.0000      -5.682416      -154.6264
  43   1.0000      -5.682333      -154.6241
  44   1.0000      -5.633437      -153.2936
  45   1.0000      -5.633345      -153.2911
  46   1.0000      -5.630364      -153.2100
  47   1.0000      -5.630290      -153.2080
  48   1.0000      -5.627087      -153.1208
  49   1.0000      -5.627036      -153.1194
  50   1.0000      -5.626119      -153.0945
  51   1.0000      -5.626044      -153.0925
  52   1.0000      -5.624248      -153.0436
  53   1.0000      -5.624190      -153.0420
  54   1.0000      -5.623756      -153.0302
  55   1.0000      -5.623681      -153.0281
  56   1.0000      -2.365962       -64.3811
  57   1.0000      -1.431326       -38.9483
  58   1.0000      -1.378770       -37.5182
  59   1.0000      -1.378106       -37.5002
  60   1.0000      -0.643645       -17.5145
  61   1.0000      -0.643560       -17.5121
  62   1.0000      -0.624334       -16.9890
  63   1.0000      -0.593782       -16.1576
  64   1.0000      -0.593326       -16.1452
  65   1.0000      -0.574112       -15.6224
  66   1.0000      -0.573843       -15.6151
  67   1.0000      -0.490736       -13.3536
  68   1.0000      -0.488980       -13.3058
  69   1.0000      -0.487505       -13.2657
  70   1.0000      -0.485999       -13.2247
  71   1.0000      -0.423537       -11.5250
  72   1.0000      -0.420414       -11.4400
  73   1.0000      -0.411679       -11.2024
  74   1.0000      -0.406592       -11.0639
  75   1.0000      -0.376326       -10.2404
  76   1.0000      -0.373070       -10.1517
  77   1.0000      -0.292111        -7.9488
  78   1.0000      -0.291913        -7.9434
  79   1.0000      -0.279496        -7.6055
  80   1.0000      -0.279000        -7.5920
  81   1.0000      -0.258122        -7.0239
  82   1.0000      -0.253194        -6.8898
  83   1.0000      -0.241467        -6.5707
  84   1.0000      -0.238884        -6.5004
  85   1.0000      -0.196813        -5.3556
  86   1.0000      -0.195994        -5.3333
  87   1.0000      -0.191586        -5.2133
  88   1.0000      -0.186881        -5.0853
  89   1.0000      -0.184278        -5.0145
  90   1.0000      -0.183883        -5.0037
  91   1.0000      -0.177349        -4.8259
  92   1.0000      -0.152405        -4.1472
  93   1.0000      -0.149170        -4.0591
  94   1.0000      -0.142327        -3.8729
  95   1.0000      -0.141953        -3.8627
  96   1.0000      -0.138707        -3.7744
  97   1.0000      -0.098017        -2.6672
  98   1.0000      -0.092579        -2.5192
  99   1.0000      -0.090031        -2.4499
 100   1.0000      -0.083176        -2.2633
 101   1.0000      -0.079606        -2.1662
 102   1.0000      -0.078251        -2.1293
 103   1.0000      -0.068835        -1.8731
 104   1.0000      -0.046514        -1.2657
 105   1.0000      -0.038477        -1.0470
 106   1.0000      -0.037324        -1.0156
 107   1.0000      -0.035223        -0.9585
 108   1.0000      -0.031764        -0.8644
 109   1.0000      -0.013182        -0.3587
 110   1.0000      -0.005150        -0.1401
 111   1.0000      -0.000633        -0.0172
 112   1.0000       0.007842         0.2134
 113   1.0000       0.011960         0.3254
 114   1.0000       0.034112         0.9282
 115   1.0000       0.059333         1.6145
 116   0.0000       0.184861         5.0303
 117   0.0000       0.187061         5.0902
 118   0.0000       0.193308         5.2602
 119   0.0000       0.196484         5.3466
 120   0.0000       0.197171         5.3653

MULLIKEN ATOMIC CHARGES AND SPIN POPULATIONS
--------------------------------------------
   0 V :    0.442448    1.204212
   1 S :   -0.265615   -0.018506
   2 S :   -0.266483   -0.018545
   3 S :   -0.240913   -0.029488
   4 S :   -0.240777   -0.029379
   5 O :   -0.506817   -0.143852
   6 C :   -0.162553    0.007326
   7 C :   -0.065907    0.010398
   8 C :   -0.160497    0.007569
   9 C :   -0.067709    0.010223
  10 S :   -0.043315   -0.000596
  11 S :   -0.041743    0.000002
  12 S :   -0.042154   -0.000009
  13 S :   -0.043440   -0.000605
  14 C :   -0.386437    0.000390
  15 C :   -0.384333    0.000401
  16 C :   -0.297294    0.000215
  17 C :   -0.298487    0.000246
  18 C :   -0.079340    0.000109
  19 H :    0.136051   -0.000131
  20 H :    0.100496    0.000016
  21 H :    0.043093    0.000021
  22 H :    0.078969   -0.000001
  23 H :    0.093416    0.000047
  24 H :    0.163422   -0.000062
  25 C :   -0.080139    0.000108
  26 H :    0.100557    0.000021
  27 H :    0.136288   -0.000133
  28 H :    0.079004   -0.000006
  29 H :    0.043408    0.000020
  30 H :    0.162881   -0.000065
  31 H :    0.093918    0.000052
Sum of atomic charges         :   -2.0000000

LOEWDIN ATOMIC CHARGES AND SPIN POPULATIONS
-------------------------------------------
   0 V :   -0.236726    1.158735
   1 S :    0.082254   -0.012450
   2 S :    0.081057   -0.012543
   3 S :    0.094326   -0.020065
   4 S :    0.094888   -0.019958
   5 O :   -0.359227   -0.129260
   6 C :   -0.562291    0.010396
   7 C :   -0.543078    0.009219
   8 C :   -0.561353    0.010522
   9 C :   -0.543368    0.009145
  10 S :    0.343257   -0.001573
  11 S :    0.328260   -0.000588
  12 S :    0.328485   -0.000598
  13 S :    0.342983   -0.001574
  14 C :   -0.293090    0.000268
  15 C :   -0.293132    0.000265
  16 C :   -0.294424    0.000091
  17 C :   -0.294607    0.000108
  18 C :   -0.186248   -0.000039
  19 H :    0.062472   -0.000057
  20 H :    0.049862   -0.000001
  21 H :    0.045781    0.000004
  22 H :    0.053904    0.000006
  23 H :    0.045953    0.000016
  24 H :    0.071107   -0.000001
  25 C :   -0.186135   -0.000042
  26 H :    0.049743    0.000003
  27 H :    0.062574   -0.000056
  28 H :    0.053912    0.000004
  29 H :    0.045903    0.000005
  30 H :    0.070954   -0.000001
  31 H :    0.046003    0.000019

  Mayer bond orders larger than 0.100000
B(  0-V ,  1-S ) :   0.8056 B(  0-V ,  2-S ) :   0.8054 B(  0-V ,  3-S ) :   0.7773
B(  0-V ,  4-S ) :   0.7755 B(  0-V ,  5-O ) :   2.1073 B(  1-S ,  8-C ) :   1.1263
B(  2-S ,  6-C ) :   1.1265 B(  3-S ,  9-C ) :   1.1401 B(  4-S ,  7-C ) :   1.1400
B(  6-C ,  7-C ) :   1.5116 B(  6-C , 10-S ) :   0.9941 B(  7-C , 11-S ) :   0.9275
B(  8-C ,  9-C ) :   1.5126 B(  8-C , 13-S ) :   0.9926 B(  9-C , 12-S ) :   0.9277
B( 10-S , 16-C ) :   0.9804 B( 11-S , 14-C ) :   1.0196 B( 12-S , 15-C ) :   1.0192
B( 13-S , 17-C ) :   0.9820 B( 14-C , 18-C ) :   0.8670 B( 14-C , 23-H ) :   0.9689
B( 14-C , 24-H ) :   0.9787 B( 15-C , 25-C ) :   0.8678 B( 15-C , 30-H ) :   0.9783
B( 15-C , 31-H ) :   0.9688 B( 16-C , 18-C ) :   0.8841 B( 16-C , 19-H ) :   0.9688
B( 16-C , 20-H ) :   0.9720 B( 17-C , 25-C ) :   0.8837 B( 17-C , 26-H ) :   0.9719
B( 17-C , 27-H ) :   0.9690 B( 18-C , 21-H ) :   0.9517 B( 18-C , 22-H ) :   0.9731
B( 25-C , 28-H ) :   0.9733 B( 25-C , 29-H ) :   0.9519

FINAL SINGLE POINT ENERGY     -4592.708885268547

DIPOLE MOMENT
-------------
                                X             Y             Z
Electronic contribution:     23.84847     -11.91480      -1.34053
Nuclear contribution   :    -26.61558      13.25201       1.42147
                        -----------------------------------------
Total Dipole Moment    :     -2.76712       1.33721       0.08094
                        -----------------------------------------
Magnitude (a.u.)       :      3.07435
Magnitude (Debye)      :      7.81436

Rotational constants in cm-1:     0.012747     0.002549     0.002429
Rotational constants in MHz :   382.143748    76.428660    72.812930

                             ****ORCA TERMINATED NORMALLY****
TOTAL RUN TIME: 0 days 0 hours 44 minutes 5 seconds 729 msec
