                         Program Version 5.0.4 -  RELEASE  -
|  1> ! nofrozencore ReducedPop printbasis
|  2> ! B3LYP TZVP
|  3>
|  4> %basis
|  5> newgto V "CP(PPP)" end
|  6> end
|  7>
|  8> %pal
|  9> nprocs 4
| 10> end
| 11>
| 12> % sym SymThresh 1e-2 end
| 13> * xyz -2 2
| 14> V -0.2839725680583499 -0.9689559063434723 -0.5080663345720186
| 15> S 0.24122337099927543 0.3344086408314569 -2.247126906491488
| 16> S 2.289634232987298 -0.8143768333771204 0.12124800470244337
| 17> S -2.2270678287502497 0.15538944495830617 -0.4807053868589339
| 18> S -0.5317766365597817 -1.0576761937457668 2.1465677283003752
| 19> O -0.3812373264399368 -2.560881806273338 -0.8159682542679803
| 20> C 2.276351731053692 -1.3998990267849276 1.8417928438805142
| 21> C 1.1590781751118602 -1.4939763348014568 2.6415272903209925
| 22> C -1.2323034770194043 1.1026420210498742 -2.7601994034315593
| 23> C -2.3211616908644577 1.0212235366786997 -1.9804916880882637
| 24> S 4.017842810314365 -1.5609133200652212 2.4935707529821842
| 25> S 1.2343752193408195 -1.7901370795187102 4.481998239660021
| 26> S -3.897602440848877 1.5671407387092644 -2.524325168239752
| 27> S -1.3135658509299855 1.7609906721530726 -4.382627028395463
| 28> C 2.1435340338562856 -0.3385425403282972 5.214962039078795
| 29> C -3.6058805866001054 3.3762413296682365 -2.482648706555064
| 30> C 4.268360590639224 -0.1620890369023359 3.69825525224369
| 31> C -1.5363911243298722 3.5334544228568054 -3.9726667737920165
| 32> C 3.6735134690568696 -0.2558537344822478 5.110588324969078
| 33> H 3.931650324593908 0.7535884336331795 3.201177557020527
| 34> H 5.361132803178503 -0.10995523711510735 3.7805310465622908
| 35> H 3.9820719517053047 0.6634505015845714 5.6508264624670685
| 36> H 4.127387385504026 -1.1064966538581926 5.6467506429227825
| 37> H 1.8678605534947157 -0.3948834688934449 6.275324715930331
| 38> H 1.6840105523237283 0.5662593415555196 4.803603019400483
| 39> C -3.001844760476951 3.903750955397042 -3.778892951893949
| 40> H -1.1039269398797598 4.107414547626024 -4.799165715531691
| 41> H -0.9465191625574977 3.733784557347498 -3.074375191300145
| 42> H -3.5829656489678263 3.50946025950604 -4.627736777321433
| 43> H -3.1018651269999356 5.006570917123013 -3.80037789974901
| 44> H -2.9569443206095984 3.5764170992456448 -1.6256909837995075
| 45> H -4.57516330197715 3.850392747316619 -2.293553963988449
| 46> *
| 47>
| 48> % eprnmr
| 49> gtensor true
| 50> Nuclei = all H {aiso,adip,aorb,fgrad,rho}
| 51> Nuclei = all V {aiso,adip,aorb,fgrad,rho}
| 52> end
| 53>
| 54>                          ****END OF INPUT****

CARTESIAN COORDINATES (ANGSTROEM)
---------------------------------
  V     -0.284116   -0.970086   -0.508400
  S      0.241080    0.333279   -2.247461
  S      2.289491   -0.815507    0.120914
  S     -2.227211    0.154260   -0.481039
  S     -0.531920   -1.058806    2.146234
  O     -0.381380   -2.562012   -0.816302
  C      2.276209   -1.401029    1.841459
  C      1.158935   -1.495106    2.641193
  C     -1.232447    1.101512   -2.760533
  C     -2.321305    1.020094   -1.980826
  S      4.017700   -1.562043    2.493237
  S      1.234232   -1.791267    4.481664
  S     -3.897745    1.566011   -2.524659
  S     -1.313709    1.759861   -4.382961
  C      2.143391   -0.339672    5.214628
  C     -3.606024    3.375111   -2.482983
  C      4.268218   -0.163219    3.697921
  C     -1.536534    3.532325   -3.973001
  C      3.673370   -0.256984    5.110254
  H      3.931507    0.752459    3.200844
  H      5.360990   -0.111085    3.780197
  H      3.981929    0.662321    5.650493
  H      4.127244   -1.107627    5.646417
  H      1.867718   -0.396013    6.274991
  H      1.683868    0.565129    4.803269
  C     -3.001988    3.902621   -3.779227
  H     -1.104070    4.106285   -4.799500
  H     -0.946662    3.732655   -3.074709
  H     -3.583109    3.508330   -4.628071
  H     -3.102008    5.005441   -3.800712
  H     -2.957087    3.575287   -1.626025
  H     -4.575306    3.849263   -2.293888

 Total Charge           Charge          ....   -2
 Multiplicity           Mult            ....    2
 Number of Electrons    NEL             ....  233
 Basis Dimension        Dim             ....  517

ORBITAL ENERGIES
----------------
                 SPIN UP ORBITALS
  NO   OCC          E(Eh)            E(eV)
   0   1.0000    -196.637429     -5350.7765
   1   1.0000     -88.683321     -2413.1959
   2   1.0000     -88.682840     -2413.1828
   3   1.0000     -88.671153     -2412.8647
   4   1.0000     -88.671095     -2412.8632
   5   1.0000     -88.620415     -2411.4841
   6   1.0000     -88.620187     -2411.4779
   7   1.0000     -88.605457     -2411.0771
   8   1.0000     -88.605121     -2411.0679
   9   1.0000     -22.013454      -599.0165
  10   1.0000     -18.850969      -512.9609
  11   1.0000     -18.519950      -503.9535
  12   1.0000     -18.514689      -503.8103
  13   1.0000     -18.514548      -503.8065
  14   1.0000     -10.020792      -272.6796
  15   1.0000     -10.020634      -272.6753
  16   1.0000     -10.012321      -272.4491
  17   1.0000     -10.012234      -272.4467
  18   1.0000     -10.009805      -272.3806
  19   1.0000     -10.004171      -272.2273
  20   1.0000      -9.993827      -271.9458
  21   1.0000      -9.993198      -271.9287
  22   1.0000      -9.992971      -271.9226
  23   1.0000      -9.992131      -271.8997
  24   1.0000      -7.738383      -210.5721
  25   1.0000      -7.737959      -210.5606
  26   1.0000      -7.723425      -210.1651
  27   1.0000      -7.723387      -210.1640
  28   1.0000      -7.677599      -208.9181
  29   1.0000      -7.677397      -208.9126
  30   1.0000      -7.657784      -208.3789
  31   1.0000      -7.657455      -208.3699
  32   1.0000      -5.703410      -155.1977
  33   1.0000      -5.702990      -155.1863
  34   1.0000      -5.699780      -155.0989
  35   1.0000      -5.699337      -155.0868
  36   1.0000      -5.693036      -154.9154
  37   1.0000      -5.692623      -154.9041
  38   1.0000      -5.688863      -154.8018
  39   1.0000      -5.688825      -154.8008
  40   1.0000      -5.684788      -154.6909
  41   1.0000      -5.684753      -154.6900
  42   1.0000      -5.678203      -154.5118
  43   1.0000      -5.678156      -154.5105
  44   1.0000      -5.642030      -153.5274
  45   1.0000      -5.641782      -153.5207
  46   1.0000      -5.635983      -153.3629
  47   1.0000      -5.635796      -153.3578
  48   1.0000      -5.635423      -153.3477
  49   1.0000      -5.635224      -153.3423
  50   1.0000      -5.623072      -153.0116
  51   1.0000      -5.622726      -153.0021
  52   1.0000      -5.616587      -152.8351
  53   1.0000      -5.616257      -152.8261
  54   1.0000      -5.615378      -152.8022
  55   1.0000      -5.615072      -152.7939
  56   1.0000      -2.408444       -65.5371
  57   1.0000      -1.446954       -39.3736
  58   1.0000      -1.440036       -39.1854
  59   1.0000      -1.438373       -39.1401
  60   1.0000      -0.663659       -18.0591
  61   1.0000      -0.627806       -17.0835
  62   1.0000      -0.613735       -16.7006
  63   1.0000      -0.609751       -16.5922
  64   1.0000      -0.590951       -16.0806
  65   1.0000      -0.572172       -15.5696
  66   1.0000      -0.561950       -15.2914
  67   1.0000      -0.508102       -13.8262
  68   1.0000      -0.500841       -13.6286
  69   1.0000      -0.475769       -12.9463
  70   1.0000      -0.471353       -12.8262
  71   1.0000      -0.434604       -11.8262
  72   1.0000      -0.423147       -11.5144
  73   1.0000      -0.408559       -11.1175
  74   1.0000      -0.395741       -10.7687
  75   1.0000      -0.387106       -10.5337
  76   1.0000      -0.364477        -9.9179
  77   1.0000      -0.299743        -8.1564
  78   1.0000      -0.289936        -7.8896
  79   1.0000      -0.286908        -7.8072
  80   1.0000      -0.272031        -7.4023
  81   1.0000      -0.264803        -7.2057
  82   1.0000      -0.248581        -6.7642
  83   1.0000      -0.244733        -6.6595
  84   1.0000      -0.234342        -6.3768
  85   1.0000      -0.204735        -5.5711
  86   1.0000      -0.201636        -5.4868
  87   1.0000      -0.196075        -5.3355
  88   1.0000      -0.194428        -5.2907
  89   1.0000      -0.183134        -4.9833
  90   1.0000      -0.181008        -4.9255
  91   1.0000      -0.174589        -4.7508
  92   1.0000      -0.159110        -4.3296
  93   1.0000      -0.158438        -4.3113
  94   1.0000      -0.141312        -3.8453
  95   1.0000      -0.135554        -3.6886
  96   1.0000      -0.126506        -3.4424
  97   1.0000      -0.109272        -2.9734
  98   1.0000      -0.103523        -2.8170
  99   1.0000      -0.086063        -2.3419
 100   1.0000      -0.078164        -2.1270
 101   1.0000      -0.073100        -1.9891
 102   1.0000      -0.070119        -1.9080
 103   1.0000      -0.065653        -1.7865
 104   1.0000      -0.049148        -1.3374
 105   1.0000      -0.045553        -1.2396
 106   1.0000      -0.044103        -1.2001
 107   1.0000      -0.031446        -0.8557
 108   1.0000      -0.027445        -0.7468
 109   1.0000      -0.014820        -0.4033
 110   1.0000      -0.003671        -0.0999
 111   1.0000      -0.002595        -0.0706
 112   1.0000       0.011808         0.3213
 113   1.0000       0.014952         0.4069
 114   1.0000       0.020822         0.5666
 115   1.0000       0.026523         0.7217
 116   1.0000       0.063030         1.7151
 117   0.0000       0.175452         4.7743
 118   0.0000       0.192783         5.2459
 119   0.0000       0.197539         5.3753
 120   0.0000       0.198341         5.3971
 121   0.0000       0.204650         5.5688

                 SPIN DOWN ORBITALS
  NO   OCC          E(Eh)            E(eV)
   0   1.0000    -196.637559     -5350.7800
   1   1.0000     -88.683330     -2413.1961
   2   1.0000     -88.682848     -2413.1830
   3   1.0000     -88.671170     -2412.8652
   4   1.0000     -88.671112     -2412.8636
   5   1.0000     -88.620572     -2411.4884
   6   1.0000     -88.620344     -2411.4822
   7   1.0000     -88.605620     -2411.0815
   8   1.0000     -88.605284     -2411.0724
   9   1.0000     -21.998924      -598.6211
  10   1.0000     -18.854735      -513.0634
  11   1.0000     -18.514690      -503.8103
  12   1.0000     -18.499562      -503.3987
  13   1.0000     -18.498522      -503.3704
  14   1.0000     -10.020788      -272.6795
  15   1.0000     -10.020628      -272.6752
  16   1.0000     -10.012318      -272.4490
  17   1.0000     -10.012231      -272.4466
  18   1.0000     -10.009800      -272.3805
  19   1.0000     -10.004173      -272.2274
  20   1.0000      -9.993698      -271.9424
  21   1.0000      -9.993070      -271.9253
  22   1.0000      -9.992498      -271.9097
  23   1.0000      -9.991656      -271.8868
  24   1.0000      -7.738392      -210.5724
  25   1.0000      -7.737968      -210.5608
  26   1.0000      -7.723442      -210.1655
  27   1.0000      -7.723404      -210.1645
  28   1.0000      -7.677737      -208.9218
  29   1.0000      -7.677535      -208.9163
  30   1.0000      -7.657938      -208.3831
  31   1.0000      -7.657610      -208.3742
  32   1.0000      -5.703424      -155.1981
  33   1.0000      -5.703003      -155.1866
  34   1.0000      -5.699799      -155.0994
  35   1.0000      -5.699355      -155.0873
  36   1.0000      -5.693039      -154.9155
  37   1.0000      -5.692624      -154.9042
  38   1.0000      -5.688882      -154.8024
  39   1.0000      -5.688845      -154.8013
  40   1.0000      -5.684810      -154.6915
  41   1.0000      -5.684775      -154.6906
  42   1.0000      -5.678230      -154.5125
  43   1.0000      -5.678184      -154.5112
  44   1.0000      -5.642253      -153.5335
  45   1.0000      -5.642000      -153.5266
  46   1.0000      -5.636162      -153.3678
  47   1.0000      -5.635972      -153.3626
  48   1.0000      -5.635709      -153.3554
  49   1.0000      -5.635518      -153.3503
  50   1.0000      -5.623213      -153.0154
  51   1.0000      -5.622865      -153.0059
  52   1.0000      -5.617076      -152.8484
  53   1.0000      -5.616747      -152.8395
  54   1.0000      -5.615454      -152.8043
  55   1.0000      -5.615151      -152.7960
  56   1.0000      -2.364505       -64.3415
  57   1.0000      -1.427667       -38.8488
  58   1.0000      -1.379050       -37.5259
  59   1.0000      -1.378367       -37.5073
  60   1.0000      -0.663429       -18.0528
  61   1.0000      -0.627811       -17.0836
  62   1.0000      -0.619408       -16.8550
  63   1.0000      -0.612056       -16.6549
  64   1.0000      -0.590849       -16.0778
  65   1.0000      -0.572132       -15.5685
  66   1.0000      -0.561985       -15.2924
  67   1.0000      -0.507914       -13.8210
  68   1.0000      -0.500484       -13.6189
  69   1.0000      -0.475889       -12.9496
  70   1.0000      -0.471553       -12.8316
  71   1.0000      -0.434623       -11.8267
  72   1.0000      -0.422896       -11.5076
  73   1.0000      -0.409015       -11.1299
  74   1.0000      -0.396011       -10.7760
  75   1.0000      -0.386918       -10.5286
  76   1.0000      -0.364605        -9.9214
  77   1.0000      -0.299676        -8.1546
  78   1.0000      -0.289846        -7.8871
  79   1.0000      -0.286912        -7.8073
  80   1.0000      -0.271593        -7.3904
  81   1.0000      -0.264806        -7.2057
  82   1.0000      -0.248404        -6.7594
  83   1.0000      -0.244669        -6.6578
  84   1.0000      -0.234349        -6.3770
  85   1.0000      -0.204062        -5.5528
  86   1.0000      -0.201587        -5.4855
  87   1.0000      -0.195866        -5.3298
  88   1.0000      -0.191763        -5.2181
  89   1.0000      -0.183121        -4.9830
  90   1.0000      -0.180741        -4.9182
  91   1.0000      -0.174543        -4.7496
  92   1.0000      -0.158526        -4.3137
  93   1.0000      -0.158050        -4.3008
  94   1.0000      -0.140945        -3.8353
  95   1.0000      -0.135491        -3.6869
  96   1.0000      -0.126467        -3.4413
  97   1.0000      -0.108345        -2.9482
  98   1.0000      -0.102250        -2.7824
  99   1.0000      -0.085191        -2.3182
 100   1.0000      -0.077921        -2.1203
 101   1.0000      -0.074537        -2.0282
 102   1.0000      -0.069918        -1.9026
 103   1.0000      -0.065191        -1.7739
 104   1.0000      -0.048550        -1.3211
 105   1.0000      -0.044827        -1.2198
 106   1.0000      -0.042803        -1.1647
 107   1.0000      -0.031247        -0.8503
 108   1.0000      -0.027503        -0.7484
 109   1.0000      -0.015386        -0.4187
 110   1.0000      -0.003184        -0.0866
 111   1.0000      -0.001011        -0.0275
 112   1.0000       0.011503         0.3130
 113   1.0000       0.021597         0.5877
 114   1.0000       0.025705         0.6995
 115   1.0000       0.061475         1.6728
 116   0.0000       0.178732         4.8636
 117   0.0000       0.180953         4.9240
 118   0.0000       0.192860         5.2480
 119   0.0000       0.198500         5.4014
 120   0.0000       0.198518         5.4020

MULLIKEN ATOMIC CHARGES AND SPIN POPULATIONS
--------------------------------------------
   0 V :    0.443044    1.198465
   1 S :   -0.184118   -0.018813
   2 S :   -0.322464   -0.028181
   3 S :   -0.184595   -0.018953
   4 S :   -0.324324   -0.028210
   5 O :   -0.517792   -0.145698
   6 C :   -0.104080    0.005765
   7 C :   -0.105493    0.005676
   8 C :   -0.122436    0.014570
   9 C :   -0.125960    0.013655
  10 S :   -0.065227   -0.001208
  11 S :   -0.063820   -0.001248
  12 S :   -0.023008    0.001356
  13 S :   -0.024200    0.001506
  14 C :   -0.322749    0.000218
  15 C :   -0.348583    0.000455
  16 C :   -0.321865    0.000205
  17 C :   -0.345055    0.000514
  18 C :   -0.066008    0.000067
  19 H :    0.136639   -0.000107
  20 H :    0.092477    0.000036
  21 H :    0.043263   -0.000039
  22 H :    0.066820   -0.000068
  23 H :    0.092227    0.000038
  24 H :    0.136582   -0.000109
  25 C :   -0.115238   -0.000190
  26 H :    0.112708   -0.000065
  27 H :    0.155694   -0.000071
  28 H :    0.091965    0.000272
  29 H :    0.046181    0.000303
  30 H :    0.156420   -0.000071
  31 H :    0.112993   -0.000068
Sum of atomic charges         :   -2.0000000

LOEWDIN ATOMIC CHARGES AND SPIN POPULATIONS
-------------------------------------------
   0 V :   -0.267393    1.147783
   1 S :    0.197236   -0.008976
   2 S :   -0.005193   -0.021083
   3 S :    0.195113   -0.009395
   4 S :   -0.007852   -0.021272
   5 O :   -0.373355   -0.131280
   6 C :   -0.516463    0.005268
   7 C :   -0.516020    0.005155
   8 C :   -0.579105    0.018596
   9 C :   -0.578725    0.017706
  10 S :    0.303949   -0.001724
  11 S :    0.304208   -0.001742
  12 S :    0.366024    0.000034
  13 S :    0.366577    0.000156
  14 C :   -0.297618    0.000108
  15 C :   -0.289901    0.000253
  16 C :   -0.297560    0.000100
  17 C :   -0.289793    0.000279
  18 C :   -0.179784   -0.000112
  19 H :    0.062216   -0.000058
  20 H :    0.048222    0.000025
  21 H :    0.049769   -0.000008
  22 H :    0.052390   -0.000021
  23 H :    0.048171    0.000026
  24 H :    0.062217   -0.000058
  25 C :   -0.191388    0.000101
  26 H :    0.047026   -0.000045
  27 H :    0.069394    0.000012
  28 H :    0.055820    0.000113
  29 H :    0.045111    0.000097
  30 H :    0.069613    0.000007
  31 H :    0.047092   -0.000046

  Mayer bond orders larger than 0.100000
B(  0-V ,  1-S ) :   0.9425 B(  0-V ,  2-S ) :   0.6596 B(  0-V ,  3-S ) :   0.9350
B(  0-V ,  4-S ) :   0.6494 B(  0-V ,  5-O ) :   2.0763 B(  1-S ,  8-C ) :   1.1377
B(  2-S ,  6-C ) :   1.1053 B(  3-S ,  9-C ) :   1.1455 B(  4-S ,  7-C ) :   1.1118
B(  6-C ,  7-C ) :   1.6086 B(  6-C , 10-S ) :   0.9363 B(  7-C , 11-S ) :   0.9371
B(  8-C ,  9-C ) :   1.4439 B(  8-C , 13-S ) :   0.9462 B(  9-C , 12-S ) :   0.9461
B( 10-S , 16-C ) :   1.0265 B( 11-S , 14-C ) :   1.0277 B( 12-S , 15-C ) :   0.9838
B( 13-S , 17-C ) :   0.9814 B( 14-C , 18-C ) :   0.8847 B( 14-C , 23-H ) :   0.9711
B( 14-C , 24-H ) :   0.9723 B( 15-C , 25-C ) :   0.8704 B( 15-C , 30-H ) :   0.9800
B( 15-C , 31-H ) :   0.9658 B( 16-C , 18-C ) :   0.8853 B( 16-C , 19-H ) :   0.9723
B( 16-C , 20-H ) :   0.9711 B( 17-C , 25-C ) :   0.8715 B( 17-C , 26-H ) :   0.9658
B( 17-C , 27-H ) :   0.9797 B( 18-C , 21-H ) :   0.9572 B( 18-C , 22-H ) :   0.9706
B( 25-C , 28-H ) :   0.9772 B( 25-C , 29-H ) :   0.9463

FINAL SINGLE POINT ENERGY     -4592.680409943852

DIPOLE MOMENT
-------------
                                X             Y             Z
Electronic contribution:     -5.98730     -23.68171     -10.93370
Nuclear contribution   :      5.70879      27.13816      10.91860
                        -----------------------------------------
Total Dipole Moment    :     -0.27851       3.45645      -0.01510
                        -----------------------------------------
Magnitude (a.u.)       :      3.46768
Magnitude (Debye)      :      8.81415

Rotational constants in cm-1:     0.012735     0.002547     0.002429
Rotational constants in MHz :   381.795559    76.351336    72.827461

                             ****ORCA TERMINATED NORMALLY****
TOTAL RUN TIME: 0 days 0 hours 43 minutes 35 seconds 886 msec
