                         Program Version 5.0.4 -  RELEASE  -
|  1> ! nofrozencore ReducedPop printbasis
|  2> ! B3LYP TZVP
|  3>
|  4> %basis
|  5> newgto V "CP(PPP)" end
|  6> end
|  7>
|  8> %pal
|  9> nprocs 4
| 10> end
| 11>
| 12> % sym SymThresh 1e-2 end
| 13> * xyz -2 2
| 14> V 0.20769541506920164 -0.9521886152233824 0.5426572676636792
| 15> S 0.7195197947545874 0.9132581411522998 2.066505545023377
| 16> S -2.110764720563927 -0.2836691650902143 1.0263182890481442
| 17> S 2.27406588188282 -0.2548238349563445 -0.5517169467504659
| 18> S -0.7161585242351597 -1.5477027783338635 -1.637735127396356
| 19> O 0.49401218208488895 -2.3007541954965562 1.3481872448980234
| 20> C -2.8675058991704487 -1.1686536479789549 -0.5438952571131286
| 21> C -2.3276448219241983 -1.7033889400173012 -1.6743031669904358
| 22> C 2.5483019238031144 1.1402320784873659 1.4547981308314657
| 23> C 3.233000831244653 0.6778201958411489 0.37218849695046946
| 24> S -4.869269293983628 -1.0926860891926555 -0.14018381827460707
| 25> S -3.2878912272761958 -2.328020917110029 -2.770670987355844
| 26> S 4.76013609454528 1.102692633138988 0.1654756910522401
| 27> S 3.328936803071869 2.3793921246995593 2.862095277062656
| 28> C -4.2067551299000066 -0.8814651334951807 -3.5458657126212922
| 29> C 4.729779883990372 2.9290449342752884 -0.27173171279276076
| 30> C -5.415730294125712 0.03433624103762474 -1.4520388979061276
| 31> C 3.607186456401521 3.867385004927875 1.8608712685047457
| 32> C -5.533610099472494 -0.5257308975135658 -2.8633767170027764
| 33> H -4.638142326936706 0.8127472765481606 -1.475747153373066
| 34> H -6.353484364521236 0.5259785771462562 -1.1340410667464287
| 35> H -6.03859548465574 0.2283212998128437 -3.4887943588714263
| 36> H -6.162701554901332 -1.4245356946101007 -2.8766636400356957
| 37> H -4.460314176493431 -1.3130443595438988 -4.531341403355378
| 38> H -3.5245502608041734 -0.03297955910734253 -3.696619946703383
| 39> C 4.812695478193015 3.8777676113741695 0.9299641984436695
| 40> H 3.6110477589659697 4.746046302179901 2.529613828364587
| 41> H 2.7063551013139593 3.9450051197985294 1.235207348170055
| 42> H 5.730794382608161 3.6365097001940128 1.4797442315611844
| 43> H 4.932674978651704 4.901315214453725 0.539322207074617
| 44> H 3.9022731005483458 3.1379806881387555 -0.9628076077109199
| 45> H 5.682044664601505 3.0223783338926715 -0.8222578825154123
| 46> *
| 47>
| 48> % eprnmr
| 49> gtensor true
| 50> Nuclei = all H {aiso,adip,aorb,fgrad,rho}
| 51> Nuclei = all V {aiso,adip,aorb,fgrad,rho}
| 52> end
| 53>
| 54>                          ****END OF INPUT****

CARTESIAN COORDINATES (ANGSTROEM)
---------------------------------
  V      0.207837   -0.953223    0.543222
  S      0.719661    0.912224    2.067070
  S     -2.110623   -0.284703    1.026883
  S      2.274207   -0.255858   -0.551153
  S     -0.716017   -1.548737   -1.637171
  O      0.494154   -2.301788    1.348752
  C     -2.867364   -1.169688   -0.543331
  C     -2.327503   -1.704423   -1.673739
  C      2.548443    1.139198    1.455362
  C      3.233142    0.676786    0.372753
  S     -4.869128   -1.093720   -0.139619
  S     -3.287750   -2.329055   -2.770107
  S      4.760278    1.101658    0.166040
  S      3.329078    2.378358    2.862660
  C     -4.206614   -0.882499   -3.545301
  C      4.729921    2.928011   -0.271167
  C     -5.415589    0.033302   -1.451475
  C      3.607328    3.866351    1.861436
  C     -5.533469   -0.526765   -2.862812
  H     -4.638001    0.811713   -1.475183
  H     -6.353343    0.524944   -1.133477
  H     -6.038454    0.227287   -3.488230
  H     -6.162560   -1.425570   -2.876099
  H     -4.460173   -1.314079   -4.530777
  H     -3.524409   -0.034014   -3.696056
  C      4.812837    3.876733    0.930529
  H      3.611189    4.745012    2.530178
  H      2.706497    3.943971    1.235772
  H      5.730936    3.635475    1.480309
  H      4.932817    4.900281    0.539887
  H      3.902415    3.136946   -0.962243
  H      5.682186    3.021344   -0.821694

 Total Charge           Charge          ....   -2
 Multiplicity           Mult            ....    2
 Number of Electrons    NEL             ....  233
 Basis Dimension        Dim             ....  517

ORBITAL ENERGIES
----------------
                 SPIN UP ORBITALS
  NO   OCC          E(Eh)            E(eV)
   0   1.0000    -196.645170     -5350.9871
   1   1.0000     -88.676628     -2413.0137
   2   1.0000     -88.676262     -2413.0038
   3   1.0000     -88.666903     -2412.7491
   4   1.0000     -88.665902     -2412.7219
   5   1.0000     -88.625467     -2411.6216
   6   1.0000     -88.624873     -2411.6054
   7   1.0000     -88.608172     -2411.1509
   8   1.0000     -88.607964     -2411.1453
   9   1.0000     -22.020444      -599.2067
  10   1.0000     -18.861816      -513.2561
  11   1.0000     -18.527368      -504.1553
  12   1.0000     -18.521495      -503.9955
  13   1.0000     -18.521443      -503.9941
  14   1.0000     -10.020910      -272.6828
  15   1.0000     -10.020632      -272.6753
  16   1.0000     -10.010051      -272.3873
  17   1.0000     -10.009654      -272.3765
  18   1.0000     -10.007431      -272.3161
  19   1.0000     -10.006751      -272.2975
  20   1.0000     -10.004134      -272.2263
  21   1.0000     -10.004006      -272.2228
  22   1.0000      -9.984523      -271.6927
  23   1.0000      -9.984237      -271.6849
  24   1.0000      -7.734984      -210.4796
  25   1.0000      -7.734918      -210.4778
  26   1.0000      -7.719048      -210.0460
  27   1.0000      -7.718014      -210.0178
  28   1.0000      -7.676142      -208.8784
  29   1.0000      -7.675738      -208.8674
  30   1.0000      -7.667564      -208.6450
  31   1.0000      -7.667504      -208.6434
  32   1.0000      -5.699959      -155.1038
  33   1.0000      -5.699931      -155.1030
  34   1.0000      -5.695712      -154.9882
  35   1.0000      -5.695695      -154.9877
  36   1.0000      -5.689514      -154.8196
  37   1.0000      -5.689472      -154.8184
  38   1.0000      -5.684068      -154.6714
  39   1.0000      -5.683014      -154.6427
  40   1.0000      -5.680757      -154.5813
  41   1.0000      -5.679735      -154.5534
  42   1.0000      -5.673944      -154.3959
  43   1.0000      -5.672926      -154.3682
  44   1.0000      -5.642008      -153.5268
  45   1.0000      -5.641540      -153.5141
  46   1.0000      -5.634576      -153.3246
  47   1.0000      -5.634178      -153.3138
  48   1.0000      -5.633751      -153.3022
  49   1.0000      -5.633360      -153.2915
  50   1.0000      -5.631727      -153.2471
  51   1.0000      -5.631690      -153.2461
  52   1.0000      -5.625795      -153.0857
  53   1.0000      -5.625762      -153.0848
  54   1.0000      -5.625377      -153.0743
  55   1.0000      -5.625346      -153.0734
  56   1.0000      -2.414324       -65.6971
  57   1.0000      -1.456016       -39.6202
  58   1.0000      -1.443963       -39.2922
  59   1.0000      -1.443035       -39.2670
  60   1.0000      -0.661487       -18.0000
  61   1.0000      -0.659153       -17.9365
  62   1.0000      -0.622689       -16.9442
  63   1.0000      -0.618129       -16.8201
  64   1.0000      -0.617304       -16.7977
  65   1.0000      -0.563541       -15.3347
  66   1.0000      -0.562727       -15.3126
  67   1.0000      -0.506871       -13.7927
  68   1.0000      -0.504925       -13.7397
  69   1.0000      -0.474132       -12.9018
  70   1.0000      -0.471624       -12.8335
  71   1.0000      -0.434141       -11.8136
  72   1.0000      -0.432247       -11.7621
  73   1.0000      -0.404900       -11.0179
  74   1.0000      -0.396823       -10.7981
  75   1.0000      -0.376138       -10.2352
  76   1.0000      -0.373980       -10.1765
  77   1.0000      -0.295694        -8.0462
  78   1.0000      -0.295250        -8.0342
  79   1.0000      -0.281946        -7.6722
  80   1.0000      -0.281217        -7.6523
  81   1.0000      -0.252991        -6.8842
  82   1.0000      -0.249024        -6.7763
  83   1.0000      -0.242158        -6.5895
  84   1.0000      -0.240221        -6.5367
  85   1.0000      -0.200149        -5.4463
  86   1.0000      -0.192435        -5.2364
  87   1.0000      -0.191280        -5.2050
  88   1.0000      -0.188172        -5.1204
  89   1.0000      -0.188035        -5.1167
  90   1.0000      -0.183653        -4.9975
  91   1.0000      -0.181964        -4.9515
  92   1.0000      -0.164394        -4.4734
  93   1.0000      -0.161797        -4.4027
  94   1.0000      -0.158750        -4.3198
  95   1.0000      -0.138304        -3.7635
  96   1.0000      -0.131273        -3.5721
  97   1.0000      -0.101374        -2.7585
  98   1.0000      -0.094685        -2.5765
  99   1.0000      -0.093916        -2.5556
 100   1.0000      -0.087233        -2.3737
 101   1.0000      -0.082865        -2.2549
 102   1.0000      -0.080242        -2.1835
 103   1.0000      -0.073293        -1.9944
 104   1.0000      -0.048835        -1.3289
 105   1.0000      -0.042207        -1.1485
 106   1.0000      -0.036768        -1.0005
 107   1.0000      -0.027255        -0.7417
 108   1.0000      -0.021343        -0.5808
 109   1.0000      -0.008641        -0.2351
 110   1.0000      -0.006549        -0.1782
 111   1.0000       0.000149         0.0040
 112   1.0000       0.005606         0.1525
 113   1.0000       0.007488         0.2038
 114   1.0000       0.018649         0.5075
 115   1.0000       0.032126         0.8742
 116   1.0000       0.056699         1.5429
 117   0.0000       0.177399         4.8273
 118   0.0000       0.184244         5.0135
 119   0.0000       0.195121         5.3095
 120   0.0000       0.195765         5.3270
 121   0.0000       0.204440         5.5631

                 SPIN DOWN ORBITALS
  NO   OCC          E(Eh)            E(eV)
   0   1.0000    -196.645303     -5350.9907
   1   1.0000     -88.676640     -2413.0140
   2   1.0000     -88.676274     -2413.0041
   3   1.0000     -88.666912     -2412.7493
   4   1.0000     -88.665912     -2412.7221
   5   1.0000     -88.625677     -2411.6273
   6   1.0000     -88.625081     -2411.6111
   7   1.0000     -88.608281     -2411.1539
   8   1.0000     -88.608071     -2411.1482
   9   1.0000     -22.005743      -598.8067
  10   1.0000     -18.865367      -513.3527
  11   1.0000     -18.522201      -504.0147
  12   1.0000     -18.506033      -503.5748
  13   1.0000     -18.505222      -503.5527
  14   1.0000     -10.020908      -272.6828
  15   1.0000     -10.020628      -272.6751
  16   1.0000     -10.010049      -272.3873
  17   1.0000     -10.009651      -272.3765
  18   1.0000     -10.007128      -272.3078
  19   1.0000     -10.006465      -272.2898
  20   1.0000     -10.004133      -272.2263
  21   1.0000     -10.004005      -272.2228
  22   1.0000      -9.984320      -271.6871
  23   1.0000      -9.984041      -271.6796
  24   1.0000      -7.734996      -210.4799
  25   1.0000      -7.734931      -210.4782
  26   1.0000      -7.719058      -210.0463
  27   1.0000      -7.718023      -210.0181
  28   1.0000      -7.676339      -208.8838
  29   1.0000      -7.675933      -208.8728
  30   1.0000      -7.667663      -208.6477
  31   1.0000      -7.667606      -208.6462
  32   1.0000      -5.699974      -155.1042
  33   1.0000      -5.699947      -155.1035
  34   1.0000      -5.695735      -154.9888
  35   1.0000      -5.695719      -154.9884
  36   1.0000      -5.689522      -154.8198
  37   1.0000      -5.689481      -154.8187
  38   1.0000      -5.684079      -154.6717
  39   1.0000      -5.683024      -154.6430
  40   1.0000      -5.680769      -154.5816
  41   1.0000      -5.679746      -154.5538
  42   1.0000      -5.673961      -154.3963
  43   1.0000      -5.672942      -154.3686
  44   1.0000      -5.642230      -153.5329
  45   1.0000      -5.641756      -153.5200
  46   1.0000      -5.635105      -153.3390
  47   1.0000      -5.634704      -153.3281
  48   1.0000      -5.633914      -153.3066
  49   1.0000      -5.633524      -153.2960
  50   1.0000      -5.631853      -153.2505
  51   1.0000      -5.631817      -153.2495
  52   1.0000      -5.626034      -153.0922
  53   1.0000      -5.626013      -153.0916
  54   1.0000      -5.625476      -153.0770
  55   1.0000      -5.625440      -153.0760
  56   1.0000      -2.370099       -64.4937
  57   1.0000      -1.436832       -39.0982
  58   1.0000      -1.382942       -37.6318
  59   1.0000      -1.381946       -37.6047
  60   1.0000      -0.661362       -17.9966
  61   1.0000      -0.659033       -17.9332
  62   1.0000      -0.630213       -17.1490
  63   1.0000      -0.618122       -16.8200
  64   1.0000      -0.617279       -16.7970
  65   1.0000      -0.563507       -15.3338
  66   1.0000      -0.562691       -15.3116
  67   1.0000      -0.506919       -13.7940
  68   1.0000      -0.504992       -13.7415
  69   1.0000      -0.474144       -12.9021
  70   1.0000      -0.471612       -12.8332
  71   1.0000      -0.434218       -11.8157
  72   1.0000      -0.432358       -11.7651
  73   1.0000      -0.405127       -11.0241
  74   1.0000      -0.397166       -10.8074
  75   1.0000      -0.376060       -10.2331
  76   1.0000      -0.373966       -10.1761
  77   1.0000      -0.295662        -8.0454
  78   1.0000      -0.295238        -8.0338
  79   1.0000      -0.281903        -7.6710
  80   1.0000      -0.281210        -7.6521
  81   1.0000      -0.252779        -6.8785
  82   1.0000      -0.248974        -6.7749
  83   1.0000      -0.242074        -6.5872
  84   1.0000      -0.240160        -6.5351
  85   1.0000      -0.198879        -5.4118
  86   1.0000      -0.192389        -5.2352
  87   1.0000      -0.190919        -5.1952
  88   1.0000      -0.188076        -5.1178
  89   1.0000      -0.187953        -5.1145
  90   1.0000      -0.183383        -4.9901
  91   1.0000      -0.181247        -4.9320
  92   1.0000      -0.164097        -4.4653
  93   1.0000      -0.161436        -4.3929
  94   1.0000      -0.158369        -4.3094
  95   1.0000      -0.137870        -3.7516
  96   1.0000      -0.131003        -3.5648
  97   1.0000      -0.099883        -2.7180
  98   1.0000      -0.093846        -2.5537
  99   1.0000      -0.093193        -2.5359
 100   1.0000      -0.087215        -2.3732
 101   1.0000      -0.083916        -2.2835
 102   1.0000      -0.080402        -2.1879
 103   1.0000      -0.074530        -2.0281
 104   1.0000      -0.047152        -1.2831
 105   1.0000      -0.041542        -1.1304
 106   1.0000      -0.034818        -0.9474
 107   1.0000      -0.026843        -0.7304
 108   1.0000      -0.020370        -0.5543
 109   1.0000      -0.007435        -0.2023
 110   1.0000      -0.006076        -0.1653
 111   1.0000       0.000833         0.0227
 112   1.0000       0.008233         0.2240
 113   1.0000       0.009245         0.2516
 114   1.0000       0.032388         0.8813
 115   1.0000       0.055965         1.5229
 116   0.0000       0.174009         4.7350
 117   0.0000       0.184339         5.0161
 118   0.0000       0.184772         5.0279
 119   0.0000       0.195962         5.3324
 120   0.0000       0.196653         5.3512

MULLIKEN ATOMIC CHARGES AND SPIN POPULATIONS
--------------------------------------------
   0 V :    0.435508    1.195649
   1 S :   -0.254273   -0.036577
   2 S :   -0.254354   -0.036983
   3 S :   -0.229074   -0.011417
   4 S :   -0.228741   -0.011003
   5 O :   -0.499630   -0.137416
   6 C :   -0.140354    0.015607
   7 C :   -0.097560    0.002766
   8 C :   -0.136024    0.014618
   9 C :   -0.101048    0.003206
  10 S :   -0.111178   -0.000284
  11 S :    0.003504    0.000646
  12 S :    0.000988    0.000480
  13 S :   -0.107342   -0.000342
  14 C :   -0.329082    0.000318
  15 C :   -0.329339    0.000382
  16 C :   -0.337190   -0.000084
  17 C :   -0.336794   -0.000030
  18 C :   -0.077081    0.000169
  19 H :    0.144914    0.000039
  20 H :    0.101148    0.000043
  21 H :    0.045553    0.000090
  22 H :    0.076292    0.000013
  23 H :    0.092176   -0.000031
  24 H :    0.142643   -0.000076
  25 C :   -0.078605    0.000171
  26 H :    0.101328    0.000048
  27 H :    0.145159    0.000020
  28 H :    0.076594    0.000006
  29 H :    0.045619    0.000075
  30 H :    0.143127   -0.000088
  31 H :    0.093116   -0.000014
Sum of atomic charges         :   -2.0000000

LOEWDIN ATOMIC CHARGES AND SPIN POPULATIONS
-------------------------------------------
   0 V :   -0.239908    1.150222
   1 S :    0.036564   -0.026667
   2 S :    0.033268   -0.026971
   3 S :    0.159616   -0.006219
   4 S :    0.163147   -0.005967
   5 O :   -0.346639   -0.123153
   6 C :   -0.422343    0.013835
   7 C :   -0.687662    0.006727
   8 C :   -0.428079    0.012911
   9 C :   -0.680693    0.007051
  10 S :    0.225770   -0.000809
  11 S :    0.434158   -0.000307
  12 S :    0.428251   -0.000439
  13 S :    0.232023   -0.000871
  14 C :   -0.274616    0.000150
  15 C :   -0.275447    0.000201
  16 C :   -0.322005    0.000117
  17 C :   -0.320311    0.000123
  18 C :   -0.185460   -0.000011
  19 H :    0.064261    0.000026
  20 H :    0.048369    0.000035
  21 H :    0.047447    0.000033
  22 H :    0.052871    0.000014
  23 H :    0.047681   -0.000024
  24 H :    0.067315   -0.000034
  25 C :   -0.185410   -0.000022
  26 H :    0.048280    0.000038
  27 H :    0.064340    0.000020
  28 H :    0.052978    0.000011
  29 H :    0.047398    0.000031
  30 H :    0.067223   -0.000034
  31 H :    0.047612   -0.000017

  Mayer bond orders larger than 0.100000
B(  0-V ,  1-S ) :   0.7905 B(  0-V ,  2-S ) :   0.7925 B(  0-V ,  3-S ) :   0.7887
B(  0-V ,  4-S ) :   0.7837 B(  0-V ,  5-O ) :   2.1153 B(  1-S ,  8-C ) :   1.0830
B(  2-S ,  6-C ) :   1.0766 B(  3-S ,  9-C ) :   1.1819 B(  4-S ,  7-C ) :   1.1825
B(  6-C ,  7-C ) :   1.4002 B(  6-C , 10-S ) :   0.8515 B(  7-C , 11-S ) :   1.1146
B(  8-C ,  9-C ) :   1.4119 B(  8-C , 13-S ) :   0.8571 B(  9-C , 12-S ) :   1.1029
B( 10-S , 16-C ) :   1.0530 B( 11-S , 14-C ) :   0.9470 B( 12-S , 15-C ) :   0.9509
B( 13-S , 17-C ) :   1.0508 B( 14-C , 18-C ) :   0.8970 B( 14-C , 23-H ) :   0.9814
B( 14-C , 24-H ) :   0.9616 B( 15-C , 25-C ) :   0.8957 B( 15-C , 30-H ) :   0.9623
B( 15-C , 31-H ) :   0.9807 B( 16-C , 18-C ) :   0.8629 B( 16-C , 19-H ) :   0.9868
B( 16-C , 20-H ) :   0.9581 B( 17-C , 25-C ) :   0.8634 B( 17-C , 26-H ) :   0.9589
B( 17-C , 27-H ) :   0.9861 B( 18-C , 21-H ) :   0.9530 B( 18-C , 22-H ) :   0.9715
B( 25-C , 28-H ) :   0.9719 B( 25-C , 29-H ) :   0.9531

FINAL SINGLE POINT ENERGY     -4592.570890256819

DIPOLE MOMENT
-------------
                                X             Y             Z
Electronic contribution:      4.94535     -22.82460      13.12552
Nuclear contribution   :     -5.28236      25.20812     -14.90301
                        -----------------------------------------
Total Dipole Moment    :     -0.33701       2.38352      -1.77749
                        -----------------------------------------
Magnitude (a.u.)       :      2.99236
Magnitude (Debye)      :      7.60597

Rotational constants in cm-1:     0.012737     0.002548     0.002430
Rotational constants in MHz :   381.850204    76.390778    72.841041

                             ****ORCA TERMINATED NORMALLY****
TOTAL RUN TIME: 0 days 0 hours 43 minutes 30 seconds 281 msec
