                         Program Version 5.0.4 -  RELEASE  -
|  1> ! nofrozencore ReducedPop printbasis
|  2> ! B3LYP TZVP
|  3>
|  4> %basis
|  5> newgto V "CP(PPP)" end
|  6> end
|  7>
|  8> %pal
|  9> nprocs 8
| 10> end
| 11>
| 12> % sym SymThresh 1e-2 end
| 13> * xyz -2 2
| 14> V -0.3806063896973827 0.08174253738414874 1.047409424107653
| 15> S -2.3841468582304546 0.3821697005933069 -0.37153621625929845
| 16> S -0.4034773709101349 -2.234192030291889 0.29968255359571977
| 17> S 0.23335395304747983 2.2655236814223016 0.16637920961723746
| 18> S 2.047902826632458 -0.31243962516179025 1.2878647411951103
| 19> O -0.9236521925302218 0.2045417627546473 2.54395903045889
| 20> C 1.1616882693066173 -2.877408772781954 0.8320847306445684
| 21> C 2.1939733612226955 -2.0706063846116987 1.1969678550222054
| 22> C -2.3499602452645703 2.1026603601015426 -0.7727793235456895
| 23> C -1.2818429615550473 2.900993158644508 -0.5038926207254368
| 24> S 1.2715918089989198 -4.677716788075117 0.8589702060968496
| 25> S 3.8418404368667147 -2.715569982238298 1.5615197682005388
| 26> S -1.2949889049482997 4.681932955970547 -0.7919840744021991
| 27> S -3.815445141404053 2.710413819637687 -1.638754448847738
| 28> C 4.346612055095053 -3.468254574853182 -0.051861786860232045
| 29> C -1.209185704422614 4.817754255712709 -2.6325579132834047
| 30> C 2.376279923769283 -5.061204325898433 -0.5714321688915006
| 31> C -3.1303521168526696 3.2109245738645473 -3.2832615600623103
| 32> C 3.873613317932539 -4.899617779400921 -0.3141503927421772
| 33> H 2.0524221177159263 -4.438922212239332 -1.4111510272680807
| 34> H 2.156615836786208 -6.105751943561866 -0.824052424768851
| 35> H 4.4113617203237965 -5.27458122888886 -1.2003436990900396
| 36> H 4.166261474497366 -5.535132334062521 0.5296520560789171
| 37> H 5.442813474471491 -3.4440018650246564 -0.03696867126746731
| 38> H 4.007707814129201 -2.792032538559353 -0.8419614809191447
| 39> C -2.530168994265402 4.615697723317715 -3.372926355800801
| 40> H -3.9819713002120136 3.1345607613283337 -3.9707161139917293
| 41> H -2.3983017767140766 2.4506671792132004 -3.572215845460395
| 42> H -3.2641417960057444 5.3434129505809675 -3.0072419062358446
| 43> H -2.358423571707354 4.840334325154519 -4.438366829818271
| 44> H -0.451069747875287 4.108048739637574 -2.979010632117964
| 45> H -0.8314479189561707 5.830502136701217 -2.8224749108302096
| 46> *
| 47>
| 48> % eprnmr
| 49> gtensor true
| 50> Nuclei = all H {aiso,adip,aorb,fgrad,rho}
| 51> Nuclei = all V {aiso,adip,aorb,fgrad,rho}
| 52> end
| 53>
| 54>                          ****END OF INPUT****

CARTESIAN COORDINATES (ANGSTROEM)
---------------------------------
  V     -0.380970    0.081761    1.048539
  S     -2.384510    0.382188   -0.370407
  S     -0.403841   -2.234174    0.300812
  S      0.232990    2.265542    0.167509
  S      2.047539   -0.312421    1.288994
  O     -0.924016    0.204560    2.545089
  C      1.161325   -2.877390    0.833214
  C      2.193610   -2.070588    1.198097
  C     -2.350324    2.102679   -0.771650
  C     -1.282207    2.901012   -0.502763
  S      1.271228   -4.677698    0.860100
  S      3.841477   -2.715552    1.562649
  S     -1.295352    4.681951   -0.790854
  S     -3.815809    2.710432   -1.637625
  C      4.346248   -3.468236   -0.050732
  C     -1.209549    4.817773   -2.631428
  C      2.375916   -5.061186   -0.570303
  C     -3.130716    3.210943   -3.282132
  C      3.873250   -4.899599   -0.313021
  H      2.052059   -4.438904   -1.410021
  H      2.156252   -6.105734   -0.822923
  H      4.410998   -5.274563   -1.199214
  H      4.165898   -5.535114    0.530782
  H      5.442450   -3.443983   -0.035839
  H      4.007344   -2.792014   -0.840832
  C     -2.530533    4.615716   -3.371797
  H     -3.982335    3.134579   -3.969587
  H     -2.398665    2.450686   -3.571086
  H     -3.264505    5.343431   -3.006112
  H     -2.358787    4.840353   -4.437237
  H     -0.451433    4.108067   -2.977881
  H     -0.831812    5.830521   -2.821345

 Total Charge           Charge          ....   -2
 Multiplicity           Mult            ....    2
 Number of Electrons    NEL             ....  233
 Basis Dimension        Dim             ....  517

ORBITAL ENERGIES
----------------
                 SPIN UP ORBITALS
  NO   OCC          E(Eh)            E(eV)
   0   1.0000    -196.640523     -5350.8607
   1   1.0000     -88.677581     -2413.0397
   2   1.0000     -88.677546     -2413.0387
   3   1.0000     -88.675707     -2412.9887
   4   1.0000     -88.675618     -2412.9862
   5   1.0000     -88.612177     -2411.2599
   6   1.0000     -88.612109     -2411.2581
   7   1.0000     -88.612052     -2411.2565
   8   1.0000     -88.611947     -2411.2537
   9   1.0000     -22.016296      -599.0939
  10   1.0000     -18.857313      -513.1336
  11   1.0000     -18.523122      -504.0398
  12   1.0000     -18.517403      -503.8841
  13   1.0000     -18.517252      -503.8801
  14   1.0000     -10.016320      -272.5579
  15   1.0000     -10.016250      -272.5560
  16   1.0000     -10.015616      -272.5388
  17   1.0000     -10.015575      -272.5376
  18   1.0000     -10.004885      -272.2468
  19   1.0000     -10.004868      -272.2463
  20   1.0000      -9.993455      -271.9357
  21   1.0000      -9.993313      -271.9319
  22   1.0000      -9.990216      -271.8476
  23   1.0000      -9.990152      -271.8458
  24   1.0000      -7.731120      -210.3745
  25   1.0000      -7.731102      -210.3740
  26   1.0000      -7.729317      -210.3254
  27   1.0000      -7.729221      -210.3228
  28   1.0000      -7.666501      -208.6161
  29   1.0000      -7.666478      -208.6155
  30   1.0000      -7.666400      -208.6133
  31   1.0000      -7.666300      -208.6106
  32   1.0000      -5.696345      -155.0054
  33   1.0000      -5.696330      -155.0050
  34   1.0000      -5.694595      -154.9578
  35   1.0000      -5.694502      -154.9553
  36   1.0000      -5.692466      -154.8999
  37   1.0000      -5.692444      -154.8993
  38   1.0000      -5.690696      -154.8517
  39   1.0000      -5.690603      -154.8492
  40   1.0000      -5.685918      -154.7217
  41   1.0000      -5.685894      -154.7210
  42   1.0000      -5.684018      -154.6700
  43   1.0000      -5.683915      -154.6672
  44   1.0000      -5.631378      -153.2376
  45   1.0000      -5.631342      -153.2366
  46   1.0000      -5.631259      -153.2343
  47   1.0000      -5.631165      -153.2318
  48   1.0000      -5.625002      -153.0641
  49   1.0000      -5.624956      -153.0628
  50   1.0000      -5.624926      -153.0620
  51   1.0000      -5.624902      -153.0614
  52   1.0000      -5.624459      -153.0493
  53   1.0000      -5.624433      -153.0486
  54   1.0000      -5.624233      -153.0432
  55   1.0000      -5.624118      -153.0400
  56   1.0000      -2.409972       -65.5787
  57   1.0000      -1.451288       -39.4915
  58   1.0000      -1.439725       -39.1769
  59   1.0000      -1.438682       -39.1485
  60   1.0000      -0.643181       -17.5018
  61   1.0000      -0.643028       -17.4977
  62   1.0000      -0.618402       -16.8276
  63   1.0000      -0.593301       -16.1445
  64   1.0000      -0.592818       -16.1314
  65   1.0000      -0.575021       -15.6471
  66   1.0000      -0.574918       -15.6443
  67   1.0000      -0.490968       -13.3599
  68   1.0000      -0.489155       -13.3106
  69   1.0000      -0.486887       -13.2489
  70   1.0000      -0.485756       -13.2181
  71   1.0000      -0.422892       -11.5075
  72   1.0000      -0.420078       -11.4309
  73   1.0000      -0.412192       -11.2163
  74   1.0000      -0.407123       -11.0784
  75   1.0000      -0.376129       -10.2350
  76   1.0000      -0.373008       -10.1501
  77   1.0000      -0.292366        -7.9557
  78   1.0000      -0.292115        -7.9488
  79   1.0000      -0.277514        -7.5515
  80   1.0000      -0.277236        -7.5440
  81   1.0000      -0.260189        -7.0801
  82   1.0000      -0.255505        -6.9527
  83   1.0000      -0.241549        -6.5729
  84   1.0000      -0.238791        -6.4978
  85   1.0000      -0.194937        -5.3045
  86   1.0000      -0.192772        -5.2456
  87   1.0000      -0.191562        -5.2127
  88   1.0000      -0.191498        -5.2109
  89   1.0000      -0.184227        -5.0131
  90   1.0000      -0.183930        -5.0050
  91   1.0000      -0.180236        -4.9045
  92   1.0000      -0.151520        -4.1231
  93   1.0000      -0.149713        -4.0739
  94   1.0000      -0.144897        -3.9428
  95   1.0000      -0.141757        -3.8574
  96   1.0000      -0.141116        -3.8400
  97   1.0000      -0.097496        -2.6530
  98   1.0000      -0.096567        -2.6277
  99   1.0000      -0.089059        -2.4234
 100   1.0000      -0.084562        -2.3010
 101   1.0000      -0.080202        -2.1824
 102   1.0000      -0.080019        -2.1774
 103   1.0000      -0.069563        -1.8929
 104   1.0000      -0.049681        -1.3519
 105   1.0000      -0.039503        -1.0749
 106   1.0000      -0.037996        -1.0339
 107   1.0000      -0.034594        -0.9413
 108   1.0000      -0.032008        -0.8710
 109   1.0000      -0.013549        -0.3687
 110   1.0000      -0.003410        -0.0928
 111   1.0000      -0.002957        -0.0805
 112   1.0000       0.005852         0.1592
 113   1.0000       0.010493         0.2855
 114   1.0000       0.016634         0.4526
 115   1.0000       0.034199         0.9306
 116   1.0000       0.059295         1.6135
 117   0.0000       0.187706         5.1077
 118   0.0000       0.194524         5.2933
 119   0.0000       0.196419         5.3448
 120   0.0000       0.196645         5.3510
 121   0.0000       0.210009         5.7146

                 SPIN DOWN ORBITALS
  NO   OCC          E(Eh)            E(eV)
   0   1.0000    -196.640665     -5350.8645
   1   1.0000     -88.677596     -2413.0401
   2   1.0000     -88.677560     -2413.0391
   3   1.0000     -88.675718     -2412.9890
   4   1.0000     -88.675630     -2412.9866
   5   1.0000     -88.612337     -2411.2643
   6   1.0000     -88.612268     -2411.2624
   7   1.0000     -88.612211     -2411.2609
   8   1.0000     -88.612106     -2411.2580
   9   1.0000     -22.001591      -598.6937
  10   1.0000     -18.860906      -513.2313
  11   1.0000     -18.517976      -503.8997
  12   1.0000     -18.501809      -503.4598
  13   1.0000     -18.501147      -503.4418
  14   1.0000     -10.016314      -272.5578
  15   1.0000     -10.016244      -272.5559
  16   1.0000     -10.015613      -272.5387
  17   1.0000     -10.015572      -272.5376
  18   1.0000     -10.004885      -272.2468
  19   1.0000     -10.004868      -272.2463
  20   1.0000      -9.993220      -271.9293
  21   1.0000      -9.993078      -271.9255
  22   1.0000      -9.989950      -271.8404
  23   1.0000      -9.989888      -271.8387
  24   1.0000      -7.731135      -210.3749
  25   1.0000      -7.731117      -210.3744
  26   1.0000      -7.729330      -210.3258
  27   1.0000      -7.729233      -210.3231
  28   1.0000      -7.666650      -208.6201
  29   1.0000      -7.666626      -208.6195
  30   1.0000      -7.666549      -208.6174
  31   1.0000      -7.666449      -208.6147
  32   1.0000      -5.696363      -155.0059
  33   1.0000      -5.696347      -155.0055
  34   1.0000      -5.694610      -154.9582
  35   1.0000      -5.694518      -154.9557
  36   1.0000      -5.692487      -154.9005
  37   1.0000      -5.692465      -154.8998
  38   1.0000      -5.690715      -154.8522
  39   1.0000      -5.690622      -154.8497
  40   1.0000      -5.685937      -154.7222
  41   1.0000      -5.685913      -154.7216
  42   1.0000      -5.684032      -154.6704
  43   1.0000      -5.683929      -154.6676
  44   1.0000      -5.631545      -153.2421
  45   1.0000      -5.631510      -153.2412
  46   1.0000      -5.631431      -153.2390
  47   1.0000      -5.631338      -153.2365
  48   1.0000      -5.625379      -153.0743
  49   1.0000      -5.625337      -153.0732
  50   1.0000      -5.625307      -153.0724
  51   1.0000      -5.625281      -153.0717
  52   1.0000      -5.624609      -153.0534
  53   1.0000      -5.624582      -153.0527
  54   1.0000      -5.624380      -153.0472
  55   1.0000      -5.624263      -153.0440
  56   1.0000      -2.365691       -64.3737
  57   1.0000      -1.432405       -38.9777
  58   1.0000      -1.378185       -37.5023
  59   1.0000      -1.377581       -37.4859
  60   1.0000      -0.643133       -17.5005
  61   1.0000      -0.642979       -17.4963
  62   1.0000      -0.626104       -17.0371
  63   1.0000      -0.593118       -16.1396
  64   1.0000      -0.592617       -16.1259
  65   1.0000      -0.575014       -15.6469
  66   1.0000      -0.574911       -15.6441
  67   1.0000      -0.490997       -13.3607
  68   1.0000      -0.489198       -13.3117
  69   1.0000      -0.486889       -13.2489
  70   1.0000      -0.485778       -13.2187
  71   1.0000      -0.423137       -11.5142
  72   1.0000      -0.420392       -11.4395
  73   1.0000      -0.412213       -11.2169
  74   1.0000      -0.407227       -11.0812
  75   1.0000      -0.376089       -10.2339
  76   1.0000      -0.373041       -10.1510
  77   1.0000      -0.292344        -7.9551
  78   1.0000      -0.292102        -7.9485
  79   1.0000      -0.277490        -7.5509
  80   1.0000      -0.277222        -7.5436
  81   1.0000      -0.259994        -7.0748
  82   1.0000      -0.255470        -6.9517
  83   1.0000      -0.241447        -6.5701
  84   1.0000      -0.238720        -6.4959
  85   1.0000      -0.194529        -5.2934
  86   1.0000      -0.192722        -5.2442
  87   1.0000      -0.191513        -5.2113
  88   1.0000      -0.191453        -5.2097
  89   1.0000      -0.184174        -5.0116
  90   1.0000      -0.183880        -5.0036
  91   1.0000      -0.178140        -4.8474
  92   1.0000      -0.150926        -4.1069
  93   1.0000      -0.149333        -4.0636
  94   1.0000      -0.144603        -3.9349
  95   1.0000      -0.141525        -3.8511
  96   1.0000      -0.141060        -3.8384
  97   1.0000      -0.096114        -2.6154
  98   1.0000      -0.095943        -2.6107
  99   1.0000      -0.089237        -2.4283
 100   1.0000      -0.084340        -2.2950
 101   1.0000      -0.081963        -2.2303
 102   1.0000      -0.079966        -2.1760
 103   1.0000      -0.070805        -1.9267
 104   1.0000      -0.045550        -1.2395
 105   1.0000      -0.038658        -1.0519
 106   1.0000      -0.038276        -1.0416
 107   1.0000      -0.033572        -0.9135
 108   1.0000      -0.031999        -0.8707
 109   1.0000      -0.012850        -0.3497
 110   1.0000      -0.004083        -0.1111
 111   1.0000      -0.002278        -0.0620
 112   1.0000       0.007161         0.1949
 113   1.0000       0.011363         0.3092
 114   1.0000       0.034486         0.9384
 115   1.0000       0.058495         1.5917
 116   0.0000       0.185086         5.0364
 117   0.0000       0.189126         5.1464
 118   0.0000       0.195814         5.3284
 119   0.0000       0.196534         5.3480
 120   0.0000       0.196924         5.3586

MULLIKEN ATOMIC CHARGES AND SPIN POPULATIONS
--------------------------------------------
   0 V :    0.449551    1.200689
   1 S :   -0.254089   -0.024207
   2 S :   -0.255480   -0.024390
   3 S :   -0.255461   -0.024581
   4 S :   -0.253901   -0.024143
   5 O :   -0.506726   -0.139399
   6 C :   -0.131350    0.009234
   7 C :   -0.100906    0.008591
   8 C :   -0.100075    0.008733
   9 C :   -0.131990    0.009181
  10 S :   -0.047139    0.000096
  11 S :   -0.041788   -0.000532
  12 S :   -0.047202    0.000077
  13 S :   -0.041801   -0.000566
  14 C :   -0.350058    0.000360
  15 C :   -0.324183    0.000218
  16 C :   -0.324268    0.000199
  17 C :   -0.350168    0.000396
  18 C :   -0.085288    0.000149
  19 H :    0.140483   -0.000103
  20 H :    0.100825    0.000022
  21 H :    0.044699    0.000029
  22 H :    0.078738    0.000013
  23 H :    0.100781    0.000018
  24 H :    0.153361   -0.000104
  25 C :   -0.085047    0.000150
  26 H :    0.100386    0.000025
  27 H :    0.153834   -0.000108
  28 H :    0.078569    0.000008
  29 H :    0.044720    0.000026
  30 H :    0.140445   -0.000108
  31 H :    0.100526    0.000028
Sum of atomic charges         :   -2.0000000

LOEWDIN ATOMIC CHARGES AND SPIN POPULATIONS
-------------------------------------------
   0 V :   -0.237950    1.154947
   1 S :    0.085285   -0.016828
   2 S :    0.086199   -0.016223
   3 S :    0.085888   -0.016331
   4 S :    0.085944   -0.016771
   5 O :   -0.351112   -0.124867
   6 C :   -0.558632    0.010616
   7 C :   -0.545604    0.009184
   8 C :   -0.544723    0.009256
   9 C :   -0.558617    0.010544
  10 S :    0.337007   -0.000854
  11 S :    0.334645   -0.001211
  12 S :    0.336853   -0.000862
  13 S :    0.334232   -0.001225
  14 C :   -0.292788    0.000232
  15 C :   -0.294880    0.000129
  16 C :   -0.294693    0.000123
  17 C :   -0.292784    0.000251
  18 C :   -0.185134   -0.000038
  19 H :    0.064236   -0.000028
  20 H :    0.047426   -0.000003
  21 H :    0.046747    0.000016
  22 H :    0.053559    0.000010
  23 H :    0.047638    0.000016
  24 H :    0.068248   -0.000029
  25 C :   -0.185185   -0.000041
  26 H :    0.047672    0.000021
  27 H :    0.068480   -0.000029
  28 H :    0.053608    0.000008
  29 H :    0.046737    0.000016
  30 H :    0.064213   -0.000029
  31 H :    0.047484   -0.000000

  Mayer bond orders larger than 0.100000
B(  0-V ,  1-S ) :   0.7647 B(  0-V ,  2-S ) :   0.8112 B(  0-V ,  3-S ) :   0.8116
B(  0-V ,  4-S ) :   0.7658 B(  0-V ,  5-O ) :   2.1073 B(  1-S ,  8-C ) :   1.1515
B(  2-S ,  6-C ) :   1.1194 B(  3-S ,  9-C ) :   1.1186 B(  4-S ,  7-C ) :   1.1506
B(  6-C ,  7-C ) :   1.5192 B(  6-C , 10-S ) :   0.9531 B(  7-C , 11-S ) :   0.9546
B(  8-C ,  9-C ) :   1.5196 B(  8-C , 13-S ) :   0.9546 B(  9-C , 12-S ) :   0.9530
B( 10-S , 16-C ) :   1.0066 B( 11-S , 14-C ) :   1.0030 B( 12-S , 15-C ) :   1.0073
B( 13-S , 17-C ) :   1.0032 B( 14-C , 18-C ) :   0.8781 B( 14-C , 23-H ) :   0.9711
B( 14-C , 24-H ) :   0.9749 B( 15-C , 25-C ) :   0.8791 B( 15-C , 30-H ) :   0.9750
B( 15-C , 31-H ) :   0.9686 B( 16-C , 18-C ) :   0.8794 B( 16-C , 19-H ) :   0.9751
B( 16-C , 20-H ) :   0.9688 B( 17-C , 25-C ) :   0.8782 B( 17-C , 26-H ) :   0.9712
B( 17-C , 27-H ) :   0.9747 B( 18-C , 21-H ) :   0.9529 B( 18-C , 22-H ) :   0.9736
B( 25-C , 28-H ) :   0.9737 B( 25-C , 29-H ) :   0.9529

FINAL SINGLE POINT ENERGY     -4592.723086623426

DIPOLE MOMENT
-------------
                                X             Y             Z
Electronic contribution:     -9.11031       1.91988      25.02194
Nuclear contribution   :     10.15672      -2.14418     -27.89314
                        -----------------------------------------
Total Dipole Moment    :      1.04641      -0.22430      -2.87120
                        -----------------------------------------
Magnitude (a.u.)       :      3.06416
Magnitude (Debye)      :      7.78847

Rotational constants in cm-1:     0.012740     0.002548     0.002431
Rotational constants in MHz :   381.932350    76.377943    72.884256

                             ****ORCA TERMINATED NORMALLY****
TOTAL RUN TIME: 0 days 0 hours 27 minutes 27 seconds 226 msec
