                         Program Version 5.0.4 -  RELEASE  -
|  1> ! nofrozencore ReducedPop printbasis
|  2> ! B3LYP TZVP
|  3>
|  4> %basis
|  5> newgto V "CP(PPP)" end
|  6> end
|  7>
|  8> %pal
|  9> nprocs 8
| 10> end
| 11>
| 12> % sym SymThresh 1e-2 end
| 13> * xyz -2 2
| 14> V 0.8127885706132935 -0.749856143676757 -0.14570006587377346
| 15> S -0.32177399961046155 -1.283008244776588 1.960010067594293
| 16> S -1.2044627502028133 -1.6003165161934862 -1.2434747658329128
| 17> S 1.7308794194169776 1.1160653737972384 1.1483337050999491
| 18> S 0.8707033641605058 0.778069687538882 -2.061336600167892
| 19> O 1.9754487964961238 -1.8251191136917466 -0.348726526352772
| 20> C -1.1096372802927736 -0.9332885864767325 -2.8831897699644604
| 21> C -0.25492477292061855 0.04830186755529453 -3.21980969264552
| 22> C 0.5456399974515563 -0.3326873741658969 3.16757924300398
| 23> C 1.4084082209885007 0.6755329825846238 2.8267766647937234
| 24> S -2.277932453724169 -1.6628072070158726 -4.054555738293563
| 25> S -0.1792609320485492 0.7562344979565966 -4.881944434231347
| 26> S 2.267223864396552 1.673011309235801 4.056568078597212
| 27> S 0.18517915992693376 -0.7616067567007968 4.879984551641782
| 28> C -1.8083052633521606 1.6073802827279098 -5.036805334107962
| 29> C 0.8977973453839944 2.62847431789673 4.848356641853689
| 30> C -3.4365777427775344 -0.2694781998426573 -4.397092621239246
| 31> C -0.7360214122277199 0.717099218045176 5.495613865757428
| 32> C -2.9764959231221693 0.7407537545748989 -5.407217375604415
| 33> H -3.7396905727963388 0.17612901779445433 -3.4400823147828823
| 34> H -4.398027381922265 -0.7411466721886644 -4.6476174897897575
| 35> H -3.8388975032260175 1.3172494058613313 -5.910920996733167
| 36> H -2.979356652158501 0.37273652070862084 -6.493957308405633
| 37> H -1.638618179802234 2.4431360278756133 -5.731208067039599
| 38> H -1.97748816387945 2.2040597278201832 -4.130396917281668
| 39> C 0.1257662741210527 1.9058561044749076 5.973480936843645
| 40> H -1.2815736101119077 0.3481586353298897 6.371080630494638
| 41> H -1.3849143042304701 1.0362014156909345 4.676255949276508
| 42> H 0.9103053984050635 1.4509146928169308 6.609718518390292
| 43> H -0.6255783305114889 2.6578330599776723 6.298244564696832
| 44> H 0.21012940045544273 2.9007789108441666 4.0438779900757345
| 45> H 1.399252058526405 3.4873670347939285 5.307690856147824
| 46> *
| 47>
| 48> % eprnmr
| 49> gtensor true
| 50> Nuclei = all H {aiso,adip,aorb,fgrad,rho}
| 51> Nuclei = all V {aiso,adip,aorb,fgrad,rho}
| 52> end
| 53>
| 54>                          ****END OF INPUT****

CARTESIAN COORDINATES (ANGSTROEM)
---------------------------------
  V      0.813626   -0.750665   -0.145931
  S     -0.320937   -1.283817    1.959779
  S     -1.203625   -1.601125   -1.243706
  S      1.731717    1.115257    1.148102
  S      0.871541    0.777261   -2.061568
  O      1.976286   -1.825928   -0.348958
  C     -1.108800   -0.934097   -2.883421
  C     -0.254087    0.047493   -3.220041
  C      0.546477   -0.333496    3.167348
  C      1.409246    0.674724    2.826545
  S     -2.277095   -1.663616   -4.054787
  S     -0.178424    0.755426   -4.882176
  S      2.268061    1.672203    4.056337
  S      0.186017   -0.762415    4.879753
  C     -1.807468    1.606572   -5.037037
  C      0.898635    2.627666    4.848125
  C     -3.435740   -0.270287   -4.397324
  C     -0.735184    0.716291    5.495383
  C     -2.975659    0.739945   -5.407449
  H     -3.738853    0.175321   -3.440314
  H     -4.397190   -0.741955   -4.647849
  H     -3.838060    1.316441   -5.911152
  H     -2.978519    0.371928   -6.494189
  H     -1.637781    2.442328   -5.731439
  H     -1.976651    2.203251   -4.130628
  C      0.126604    1.905048    5.973250
  H     -1.280736    0.347350    6.370849
  H     -1.384077    1.035393    4.676025
  H      0.911143    1.450106    6.609487
  H     -0.624741    2.657025    6.298013
  H      0.210967    2.899970    4.043647
  H      1.400089    3.486559    5.307460

 Total Charge           Charge          ....   -2
 Multiplicity           Mult            ....    2
 Number of Electrons    NEL             ....  233
 Basis Dimension        Dim             ....  517

ORBITAL ENERGIES
----------------
                 SPIN UP ORBITALS
  NO   OCC          E(Eh)            E(eV)
   0   1.0000    -196.639943     -5350.8449
   1   1.0000     -88.677484     -2413.0370
   2   1.0000     -88.677421     -2413.0353
   3   1.0000     -88.675854     -2412.9926
   4   1.0000     -88.675834     -2412.9921
   5   1.0000     -88.612067     -2411.2569
   6   1.0000     -88.612036     -2411.2561
   7   1.0000     -88.611561     -2411.2432
   8   1.0000     -88.611526     -2411.2422
   9   1.0000     -22.015740      -599.0787
  10   1.0000     -18.856991      -513.1248
  11   1.0000     -18.522568      -504.0247
  12   1.0000     -18.516787      -503.8674
  13   1.0000     -18.516752      -503.8664
  14   1.0000     -10.019002      -272.6309
  15   1.0000     -10.018992      -272.6306
  16   1.0000     -10.017126      -272.5799
  17   1.0000     -10.014745      -272.5151
  18   1.0000     -10.014720      -272.5144
  19   1.0000     -10.006606      -272.2936
  20   1.0000      -9.992333      -271.9052
  21   1.0000      -9.991673      -271.8872
  22   1.0000      -9.990812      -271.8638
  23   1.0000      -9.990006      -271.8419
  24   1.0000      -7.731095      -210.3738
  25   1.0000      -7.731045      -210.3724
  26   1.0000      -7.729553      -210.3318
  27   1.0000      -7.729532      -210.3313
  28   1.0000      -7.666538      -208.6171
  29   1.0000      -7.666486      -208.6157
  30   1.0000      -7.665930      -208.6006
  31   1.0000      -7.665918      -208.6002
  32   1.0000      -5.696368      -155.0060
  33   1.0000      -5.696318      -155.0047
  34   1.0000      -5.694747      -154.9619
  35   1.0000      -5.694739      -154.9617
  36   1.0000      -5.692467      -154.8999
  37   1.0000      -5.692417      -154.8985
  38   1.0000      -5.690888      -154.8569
  39   1.0000      -5.690864      -154.8563
  40   1.0000      -5.685786      -154.7181
  41   1.0000      -5.685732      -154.7166
  42   1.0000      -5.684368      -154.6795
  43   1.0000      -5.684347      -154.6789
  44   1.0000      -5.631341      -153.2366
  45   1.0000      -5.631302      -153.2355
  46   1.0000      -5.630830      -153.2227
  47   1.0000      -5.630813      -153.2222
  48   1.0000      -5.624967      -153.0631
  49   1.0000      -5.624919      -153.0618
  50   1.0000      -5.624567      -153.0522
  51   1.0000      -5.624517      -153.0509
  52   1.0000      -5.624378      -153.0471
  53   1.0000      -5.624363      -153.0467
  54   1.0000      -5.623857      -153.0329
  55   1.0000      -5.623849      -153.0327
  56   1.0000      -2.409422       -65.5637
  57   1.0000      -1.450786       -39.4779
  58   1.0000      -1.439195       -39.1625
  59   1.0000      -1.438120       -39.1332
  60   1.0000      -0.646573       -17.5941
  61   1.0000      -0.642484       -17.4829
  62   1.0000      -0.618056       -16.8182
  63   1.0000      -0.595997       -16.2179
  64   1.0000      -0.591951       -16.1078
  65   1.0000      -0.577798       -15.7227
  66   1.0000      -0.574953       -15.6453
  67   1.0000      -0.493847       -13.4383
  68   1.0000      -0.488437       -13.2910
  69   1.0000      -0.488379       -13.2895
  70   1.0000      -0.486334       -13.2338
  71   1.0000      -0.423852       -11.5336
  72   1.0000      -0.420143       -11.4327
  73   1.0000      -0.418610       -11.3910
  74   1.0000      -0.404842       -11.0163
  75   1.0000      -0.381746       -10.3878
  76   1.0000      -0.369652       -10.0587
  77   1.0000      -0.305493        -8.3129
  78   1.0000      -0.301465        -8.2033
  79   1.0000      -0.277071        -7.5395
  80   1.0000      -0.265266        -7.2183
  81   1.0000      -0.261266        -7.1094
  82   1.0000      -0.255934        -6.9643
  83   1.0000      -0.243806        -6.6343
  84   1.0000      -0.241317        -6.5666
  85   1.0000      -0.198720        -5.4074
  86   1.0000      -0.198112        -5.3909
  87   1.0000      -0.195123        -5.3096
  88   1.0000      -0.184841        -5.0298
  89   1.0000      -0.182293        -4.9605
  90   1.0000      -0.171453        -4.6655
  91   1.0000      -0.169153        -4.6029
  92   1.0000      -0.150516        -4.0957
  93   1.0000      -0.150384        -4.0921
  94   1.0000      -0.143389        -3.9018
  95   1.0000      -0.143275        -3.8987
  96   1.0000      -0.128694        -3.5019
  97   1.0000      -0.096768        -2.6332
  98   1.0000      -0.096115        -2.6154
  99   1.0000      -0.088164        -2.3991
 100   1.0000      -0.081855        -2.2274
 101   1.0000      -0.081041        -2.2052
 102   1.0000      -0.080042        -2.1781
 103   1.0000      -0.069192        -1.8828
 104   1.0000      -0.050167        -1.3651
 105   1.0000      -0.038273        -1.0415
 106   1.0000      -0.038147        -1.0380
 107   1.0000      -0.035674        -0.9707
 108   1.0000      -0.032193        -0.8760
 109   1.0000      -0.012921        -0.3516
 110   1.0000      -0.004101        -0.1116
 111   1.0000      -0.003368        -0.0916
 112   1.0000       0.006473         0.1761
 113   1.0000       0.010679         0.2906
 114   1.0000       0.016431         0.4471
 115   1.0000       0.033573         0.9136
 116   1.0000       0.059820         1.6278
 117   0.0000       0.183315         4.9883
 118   0.0000       0.188217         5.1216
 119   0.0000       0.195680         5.3247
 120   0.0000       0.198135         5.3915
 121   0.0000       0.211493         5.7550

                 SPIN DOWN ORBITALS
  NO   OCC          E(Eh)            E(eV)
   0   1.0000    -196.640084     -5350.8487
   1   1.0000     -88.677498     -2413.0374
   2   1.0000     -88.677434     -2413.0357
   3   1.0000     -88.675867     -2412.9930
   4   1.0000     -88.675847     -2412.9925
   5   1.0000     -88.612226     -2411.2613
   6   1.0000     -88.612195     -2411.2604
   7   1.0000     -88.611722     -2411.2475
   8   1.0000     -88.611687     -2411.2466
   9   1.0000     -22.001074      -598.6797
  10   1.0000     -18.860563      -513.2220
  11   1.0000     -18.517442      -503.8852
  12   1.0000     -18.501297      -503.4459
  13   1.0000     -18.500621      -503.4275
  14   1.0000     -10.018999      -272.6308
  15   1.0000     -10.018989      -272.6305
  16   1.0000     -10.017126      -272.5798
  17   1.0000     -10.014741      -272.5150
  18   1.0000     -10.014716      -272.5143
  19   1.0000     -10.006606      -272.2936
  20   1.0000      -9.992080      -271.8983
  21   1.0000      -9.991422      -271.8804
  22   1.0000      -9.990555      -271.8568
  23   1.0000      -9.989752      -271.8350
  24   1.0000      -7.731109      -210.3742
  25   1.0000      -7.731059      -210.3728
  26   1.0000      -7.729567      -210.3322
  27   1.0000      -7.729546      -210.3316
  28   1.0000      -7.666686      -208.6211
  29   1.0000      -7.666633      -208.6197
  30   1.0000      -7.666079      -208.6046
  31   1.0000      -7.666067      -208.6043
  32   1.0000      -5.696384      -155.0065
  33   1.0000      -5.696334      -155.0051
  34   1.0000      -5.694764      -154.9624
  35   1.0000      -5.694756      -154.9622
  36   1.0000      -5.692487      -154.9004
  37   1.0000      -5.692437      -154.8991
  38   1.0000      -5.690908      -154.8575
  39   1.0000      -5.690884      -154.8568
  40   1.0000      -5.685803      -154.7186
  41   1.0000      -5.685749      -154.7171
  42   1.0000      -5.684385      -154.6800
  43   1.0000      -5.684364      -154.6794
  44   1.0000      -5.631512      -153.2412
  45   1.0000      -5.631473      -153.2402
  46   1.0000      -5.631002      -153.2274
  47   1.0000      -5.630986      -153.2269
  48   1.0000      -5.625355      -153.0737
  49   1.0000      -5.625308      -153.0724
  50   1.0000      -5.624772      -153.0578
  51   1.0000      -5.624758      -153.0574
  52   1.0000      -5.624703      -153.0559
  53   1.0000      -5.624652      -153.0546
  54   1.0000      -5.623990      -153.0366
  55   1.0000      -5.623984      -153.0364
  56   1.0000      -2.365248       -64.3617
  57   1.0000      -1.431973       -38.9660
  58   1.0000      -1.377794       -37.4917
  59   1.0000      -1.377152       -37.4742
  60   1.0000      -0.646525       -17.5928
  61   1.0000      -0.642434       -17.4815
  62   1.0000      -0.625703       -17.0262
  63   1.0000      -0.595791       -16.2123
  64   1.0000      -0.591757       -16.1025
  65   1.0000      -0.577795       -15.7226
  66   1.0000      -0.574947       -15.6451
  67   1.0000      -0.493864       -13.4387
  68   1.0000      -0.488474       -13.2921
  69   1.0000      -0.488380       -13.2895
  70   1.0000      -0.486352       -13.2343
  71   1.0000      -0.424110       -11.5406
  72   1.0000      -0.420443       -11.4408
  73   1.0000      -0.418655       -11.3922
  74   1.0000      -0.404899       -11.0179
  75   1.0000      -0.381738       -10.3876
  76   1.0000      -0.369649       -10.0586
  77   1.0000      -0.305487        -8.3127
  78   1.0000      -0.301444        -8.2027
  79   1.0000      -0.277060        -7.5392
  80   1.0000      -0.265223        -7.2171
  81   1.0000      -0.261104        -7.1050
  82   1.0000      -0.255860        -6.9623
  83   1.0000      -0.243718        -6.6319
  84   1.0000      -0.241239        -6.5644
  85   1.0000      -0.198684        -5.4065
  86   1.0000      -0.197786        -5.3820
  87   1.0000      -0.195063        -5.3079
  88   1.0000      -0.184800        -5.0287
  89   1.0000      -0.180252        -4.9049
  90   1.0000      -0.171337        -4.6623
  91   1.0000      -0.168913        -4.5964
  92   1.0000      -0.150205        -4.0873
  93   1.0000      -0.149712        -4.0739
  94   1.0000      -0.143186        -3.8963
  95   1.0000      -0.143081        -3.8934
  96   1.0000      -0.128491        -3.4964
  97   1.0000      -0.095629        -2.6022
  98   1.0000      -0.095260        -2.5922
  99   1.0000      -0.088388        -2.4052
 100   1.0000      -0.081920        -2.2292
 101   1.0000      -0.081831        -2.2267
 102   1.0000      -0.080577        -2.1926
 103   1.0000      -0.070419        -1.9162
 104   1.0000      -0.046132        -1.2553
 105   1.0000      -0.038452        -1.0463
 106   1.0000      -0.037327        -1.0157
 107   1.0000      -0.034639        -0.9426
 108   1.0000      -0.032162        -0.8752
 109   1.0000      -0.012012        -0.3269
 110   1.0000      -0.005438        -0.1480
 111   1.0000      -0.002310        -0.0628
 112   1.0000       0.007283         0.1982
 113   1.0000       0.011579         0.3151
 114   1.0000       0.033824         0.9204
 115   1.0000       0.059030         1.6063
 116   0.0000       0.183282         4.9874
 117   0.0000       0.185502         5.0478
 118   0.0000       0.189410         5.1541
 119   0.0000       0.196248         5.3402
 120   0.0000       0.198368         5.3979

MULLIKEN ATOMIC CHARGES AND SPIN POPULATIONS
--------------------------------------------
   0 V :    0.447723    1.198936
   1 S :   -0.251460   -0.023991
   2 S :   -0.257944   -0.024230
   3 S :   -0.251866   -0.023938
   4 S :   -0.258256   -0.024111
   5 O :   -0.506784   -0.138618
   6 C :   -0.113170    0.008956
   7 C :   -0.111575    0.008964
   8 C :   -0.116620    0.008788
   9 C :   -0.116907    0.008749
  10 S :   -0.037620   -0.000207
  11 S :   -0.037552   -0.000239
  12 S :   -0.046680   -0.000179
  13 S :   -0.046793   -0.000209
  14 C :   -0.317684    0.000349
  15 C :   -0.344324    0.000294
  16 C :   -0.317273    0.000334
  17 C :   -0.343999    0.000317
  18 C :   -0.089427   -0.000143
  19 H :    0.147464   -0.000106
  20 H :    0.099135    0.000044
  21 H :    0.025452    0.000189
  22 H :    0.053098    0.000078
  23 H :    0.099130    0.000046
  24 H :    0.147772   -0.000108
  25 C :   -0.089870    0.000206
  26 H :    0.102662    0.000027
  27 H :    0.147890   -0.000114
  28 H :    0.086653   -0.000008
  29 H :    0.048318    0.000009
  30 H :    0.147830   -0.000109
  31 H :    0.102676    0.000025
Sum of atomic charges         :   -2.0000000

LOEWDIN ATOMIC CHARGES AND SPIN POPULATIONS
-------------------------------------------
   0 V :   -0.243027    1.153001
   1 S :    0.090776   -0.016234
   2 S :    0.084157   -0.016466
   3 S :    0.090514   -0.016174
   4 S :    0.083888   -0.016405
   5 O :   -0.351001   -0.124088
   6 C :   -0.548058    0.010108
   7 C :   -0.547570    0.010069
   8 C :   -0.556271    0.009874
   9 C :   -0.556703    0.009896
  10 S :    0.339685   -0.001028
  11 S :    0.339471   -0.001048
  12 S :    0.334699   -0.001045
  13 S :    0.334629   -0.001059
  14 C :   -0.297260    0.000168
  15 C :   -0.296814    0.000170
  16 C :   -0.297454    0.000160
  17 C :   -0.296891    0.000180
  18 C :   -0.203899   -0.000030
  19 H :    0.067098   -0.000032
  20 H :    0.051492    0.000007
  21 H :    0.051371    0.000035
  22 H :    0.057339    0.000014
  23 H :    0.051477    0.000008
  24 H :    0.067242   -0.000032
  25 C :   -0.193833   -0.000044
  26 H :    0.046851    0.000008
  27 H :    0.066174   -0.000027
  28 H :    0.063103    0.000014
  29 H :    0.055797    0.000019
  30 H :    0.066199   -0.000026
  31 H :    0.046819    0.000007

  Mayer bond orders larger than 0.100000
B(  0-V ,  1-S ) :   0.7873 B(  0-V ,  2-S ) :   0.7916 B(  0-V ,  3-S ) :   0.7893
B(  0-V ,  4-S ) :   0.7891 B(  0-V ,  5-O ) :   2.1079 B(  1-S ,  8-C ) :   1.1422
B(  2-S ,  6-C ) :   1.1326 B(  3-S ,  9-C ) :   1.1410 B(  4-S ,  7-C ) :   1.1338
B(  6-C ,  7-C ) :   1.5333 B(  6-C , 10-S ) :   0.9515 B(  7-C , 11-S ) :   0.9516
B(  8-C ,  9-C ) :   1.5036 B(  8-C , 13-S ) :   0.9515 B(  9-C , 12-S ) :   0.9513
B( 10-S , 16-C ) :   1.0048 B( 11-S , 14-C ) :   1.0045 B( 12-S , 15-C ) :   1.0031
B( 13-S , 17-C ) :   1.0033 B( 14-C , 18-C ) :   0.9290 B( 14-C , 23-H ) :   0.9597
B( 14-C , 24-H ) :   0.9727 B( 15-C , 25-C ) :   0.8726 B( 15-C , 30-H ) :   0.9735
B( 15-C , 31-H ) :   0.9725 B( 16-C , 18-C ) :   0.9287 B( 16-C , 19-H ) :   0.9727
B( 16-C , 20-H ) :   0.9598 B( 17-C , 25-C ) :   0.8725 B( 17-C , 26-H ) :   0.9725
B( 17-C , 27-H ) :   0.9733 B( 18-C , 21-H ) :   0.9222 B( 18-C , 22-H ) :   0.9463
B( 25-C , 28-H ) :   0.9670 B( 25-C , 29-H ) :   0.9526

FINAL SINGLE POINT ENERGY     -4592.680532986825

DIPOLE MOMENT
-------------
                                X             Y             Z
Electronic contribution:     19.63565     -17.97822      -3.16596
Nuclear contribution   :    -21.90288      20.02533       3.44284
                        -----------------------------------------
Total Dipole Moment    :     -2.26723       2.04710       0.27687
                        -----------------------------------------
Magnitude (a.u.)       :      3.06718
Magnitude (Debye)      :      7.79616

Rotational constants in cm-1:     0.012772     0.002548     0.002431
Rotational constants in MHz :   382.896089    76.397077    72.881473

                             ****ORCA TERMINATED NORMALLY****
TOTAL RUN TIME: 0 days 0 hours 27 minutes 27 seconds 928 msec
