                         Program Version 5.0.4 -  RELEASE  -
|  1> ! nofrozencore ReducedPop printbasis
|  2> ! B3LYP TZVP
|  3>
|  4> %basis
|  5> newgto V "CP(PPP)" end
|  6> end
|  7>
|  8> %pal
|  9> nprocs 4
| 10> end
| 11>
| 12> % sym SymThresh 1e-2 end
| 13> * xyz -2 2
| 14> V 0.8822572999344458 -0.1573490614542046 0.6644616244884743
| 15> S 1.7749015211280512 0.7802834827065981 -1.4237186800353476
| 16> S -0.06674699251473379 2.062980945812939 1.0496240963144812
| 17> S 0.5125737197907025 -2.144817999519582 -0.7122011264739337
| 18> S -1.0605175148514288 -0.9079514168218223 1.9696504842828322
| 19> O 2.1499902259196255 -0.38046036794783067 1.6091619666127708
| 20> C -1.243251246143984 1.8115483387930673 2.347714445479158
| 21> C -1.6538968881435288 0.5720092776700461 2.7328833223241604
| 22> C 2.031801818448638 -0.639404480853322 -2.4446456147753817
| 23> C 1.5012192955952273 -1.858622017407228 -2.1521874954951428
| 24> S -1.8831046627255261 3.3280290398207124 3.0891021932492633
| 25> S -2.8632534525870814 0.3106142560212747 4.0488876120916855
| 26> S 1.7076960841853048 -3.296912082720057 -3.2232977073668927
| 27> S 3.032824172198381 -0.33855820138398296 -3.9182330319803405
| 28> C -4.424115632012893 0.977890841802346 3.3139164089391664
| 29> C 0.7615477361852305 -2.8174438423426054 -4.73893413671797
| 30> C -3.654311765653148 3.3324582587647336 2.554693078832894
| 31> C 1.8072811265372684 -0.5114826022379279 -5.291785463108467
| 32> C -4.615429364908956 2.4940901392830934 3.4014675842040516
| 33> H -3.6783963805920386 3.0184172903820294 1.5069641779498943
| 34> H -3.953490728728445 4.386608462299264 2.5947907671989108
| 35> H -5.643074051644899 2.723464035165131 3.0709421491944577
| 36> H -4.53751208572112 2.8071661589902774 4.4502690520611825
| 37> H -5.22788357255826 0.4737025233805559 3.8634563067604852
| 38> H -4.465753543198518 0.6367476511840128 2.2751917978540908
| 39> C 1.5062253453024672 -1.940637616869273 -5.748927285382675
| 40> H 2.2414693397106316 0.05622689346081014 -6.123489898515546
| 41> H 0.8932697566815501 0.0025417166750309568 -4.979423639593585
| 42> H 2.4453950626188754 -2.434110552203173 -6.029201253047819
| 43> H 0.8885755272596997 -1.8789419838750758 -6.661355283020397
| 44> H -0.16256400595558929 -2.3356072652101707 -4.405971487569811
| 45> H 0.49075839076107347 -3.7700505228014283 -5.209589981402786
| 46> *
| 47>
| 48> % eprnmr
| 49> gtensor true
| 50> Nuclei = all H {aiso,adip,aorb,fgrad,rho}
| 51> Nuclei = all V {aiso,adip,aorb,fgrad,rho}
| 52> end
| 53>
| 54>                          ****END OF INPUT****

CARTESIAN COORDINATES (ANGSTROEM)
---------------------------------
  V      0.883154   -0.157478    0.665228
  S      1.775799    0.780154   -1.422953
  S     -0.065850    2.062852    1.050390
  S      0.513471   -2.144947   -0.711435
  S     -1.059620   -0.908080    1.970417
  O      2.150887   -0.380589    1.609928
  C     -1.242354    1.811419    2.348481
  C     -1.653000    0.571880    2.733649
  C      2.032699   -0.639534   -2.443880
  C      1.502116   -1.858751   -2.151421
  S     -1.882207    3.327900    3.089868
  S     -2.862356    0.310485    4.049654
  S      1.708593   -3.297041   -3.222532
  S      3.033721   -0.338687   -3.917467
  C     -4.423218    0.977762    3.314683
  C      0.762445   -2.817573   -4.738168
  C     -3.653415    3.332329    2.555459
  C      1.808178   -0.511612   -5.291019
  C     -4.614532    2.493961    3.402234
  H     -3.677499    3.018288    1.507730
  H     -3.952594    4.386479    2.595557
  H     -5.642177    2.723335    3.071708
  H     -4.536615    2.807037    4.451035
  H     -5.226986    0.473573    3.864222
  H     -4.464856    0.636619    2.275958
  C      1.507123   -1.940767   -5.748161
  H      2.242367    0.056098   -6.122724
  H      0.894167    0.002413   -4.978658
  H      2.446292   -2.434240   -6.028435
  H      0.889473   -1.879071   -6.660589
  H     -0.161667   -2.335736   -4.405205
  H      0.491656   -3.770180   -5.208824

 Total Charge           Charge          ....   -2
 Multiplicity           Mult            ....    2
 Number of Electrons    NEL             ....  233
 Basis Dimension        Dim             ....  517

ORBITAL ENERGIES
----------------
                 SPIN UP ORBITALS
  NO   OCC          E(Eh)            E(eV)
   0   1.0000    -196.640210     -5350.8522
   1   1.0000     -88.676791     -2413.0182
   2   1.0000     -88.676760     -2413.0173
   3   1.0000     -88.676671     -2413.0149
   4   1.0000     -88.676533     -2413.0111
   5   1.0000     -88.612504     -2411.2688
   6   1.0000     -88.612498     -2411.2687
   7   1.0000     -88.611455     -2411.2403
   8   1.0000     -88.611302     -2411.2361
   9   1.0000     -22.016017      -599.0863
  10   1.0000     -18.857164      -513.1295
  11   1.0000     -18.522838      -504.0320
  12   1.0000     -18.517074      -503.8752
  13   1.0000     -18.517024      -503.8738
  14   1.0000     -10.016124      -272.5526
  15   1.0000     -10.016098      -272.5519
  16   1.0000     -10.016065      -272.5510
  17   1.0000     -10.016033      -272.5501
  18   1.0000     -10.005419      -272.2613
  19   1.0000     -10.005347      -272.2593
  20   1.0000      -9.992253      -271.9030
  21   1.0000      -9.992182      -271.9011
  22   1.0000      -9.991408      -271.8800
  23   1.0000      -9.991369      -271.8790
  24   1.0000      -7.730336      -210.3531
  25   1.0000      -7.730320      -210.3527
  26   1.0000      -7.730207      -210.3496
  27   1.0000      -7.730107      -210.3469
  28   1.0000      -7.666865      -208.6260
  29   1.0000      -7.666861      -208.6259
  30   1.0000      -7.665876      -208.5991
  31   1.0000      -7.665789      -208.5967
  32   1.0000      -5.695591      -154.9849
  33   1.0000      -5.695570      -154.9843
  34   1.0000      -5.695465      -154.9815
  35   1.0000      -5.695361      -154.9787
  36   1.0000      -5.691693      -154.8788
  37   1.0000      -5.691679      -154.8785
  38   1.0000      -5.691584      -154.8759
  39   1.0000      -5.691479      -154.8730
  40   1.0000      -5.685095      -154.6993
  41   1.0000      -5.685073      -154.6987
  42   1.0000      -5.684949      -154.6953
  43   1.0000      -5.684841      -154.6924
  44   1.0000      -5.631713      -153.2467
  45   1.0000      -5.631700      -153.2464
  46   1.0000      -5.630726      -153.2198
  47   1.0000      -5.630623      -153.2170
  48   1.0000      -5.625311      -153.0725
  49   1.0000      -5.625299      -153.0722
  50   1.0000      -5.624865      -153.0604
  51   1.0000      -5.624863      -153.0603
  52   1.0000      -5.624331      -153.0458
  53   1.0000      -5.624227      -153.0430
  54   1.0000      -5.623850      -153.0327
  55   1.0000      -5.623743      -153.0298
  56   1.0000      -2.409697       -65.5712
  57   1.0000      -1.451041       -39.4848
  58   1.0000      -1.439468       -39.1699
  59   1.0000      -1.438394       -39.1407
  60   1.0000      -0.642650       -17.4874
  61   1.0000      -0.642578       -17.4854
  62   1.0000      -0.618230       -16.8229
  63   1.0000      -0.592988       -16.1360
  64   1.0000      -0.592543       -16.1239
  65   1.0000      -0.575094       -15.6491
  66   1.0000      -0.575007       -15.6467
  67   1.0000      -0.490913       -13.3584
  68   1.0000      -0.489040       -13.3075
  69   1.0000      -0.487238       -13.2584
  70   1.0000      -0.486069       -13.2266
  71   1.0000      -0.422899       -11.5077
  72   1.0000      -0.420072       -11.4308
  73   1.0000      -0.412085       -11.2134
  74   1.0000      -0.407004       -11.0752
  75   1.0000      -0.376038       -10.2325
  76   1.0000      -0.372866       -10.1462
  77   1.0000      -0.292122        -7.9490
  78   1.0000      -0.291944        -7.9442
  79   1.0000      -0.277040        -7.5386
  80   1.0000      -0.276776        -7.5315
  81   1.0000      -0.260340        -7.0842
  82   1.0000      -0.255588        -6.9549
  83   1.0000      -0.241353        -6.5676
  84   1.0000      -0.238503        -6.4900
  85   1.0000      -0.195138        -5.3100
  86   1.0000      -0.192683        -5.2432
  87   1.0000      -0.191900        -5.2219
  88   1.0000      -0.191608        -5.2139
  89   1.0000      -0.183864        -5.0032
  90   1.0000      -0.183666        -4.9978
  91   1.0000      -0.180453        -4.9104
  92   1.0000      -0.150471        -4.0945
  93   1.0000      -0.149854        -4.0777
  94   1.0000      -0.143845        -3.9142
  95   1.0000      -0.143061        -3.8929
  96   1.0000      -0.141823        -3.8592
  97   1.0000      -0.097403        -2.6505
  98   1.0000      -0.096388        -2.6228
  99   1.0000      -0.089358        -2.4316
 100   1.0000      -0.083189        -2.2637
 101   1.0000      -0.081464        -2.2168
 102   1.0000      -0.080136        -2.1806
 103   1.0000      -0.069676        -1.8960
 104   1.0000      -0.049838        -1.3562
 105   1.0000      -0.038184        -1.0390
 106   1.0000      -0.037926        -1.0320
 107   1.0000      -0.035516        -0.9664
 108   1.0000      -0.032121        -0.8741
 109   1.0000      -0.012866        -0.3501
 110   1.0000      -0.004116        -0.1120
 111   1.0000      -0.003431        -0.0934
 112   1.0000       0.006009         0.1635
 113   1.0000       0.010643         0.2896
 114   1.0000       0.016358         0.4451
 115   1.0000       0.033996         0.9251
 116   1.0000       0.059866         1.6290
 117   0.0000       0.188050         5.1171
 118   0.0000       0.195109         5.3092
 119   0.0000       0.196356         5.3431
 120   0.0000       0.196603         5.3499
 121   0.0000       0.210578         5.7301

                 SPIN DOWN ORBITALS
  NO   OCC          E(Eh)            E(eV)
   0   1.0000    -196.640352     -5350.8560
   1   1.0000     -88.676804     -2413.0185
   2   1.0000     -88.676773     -2413.0177
   3   1.0000     -88.676685     -2413.0153
   4   1.0000     -88.676547     -2413.0115
   5   1.0000     -88.612665     -2411.2732
   6   1.0000     -88.612658     -2411.2730
   7   1.0000     -88.611615     -2411.2446
   8   1.0000     -88.611463     -2411.2405
   9   1.0000     -22.001326      -598.6865
  10   1.0000     -18.860756      -513.2273
  11   1.0000     -18.517696      -503.8921
  12   1.0000     -18.501544      -503.4526
  13   1.0000     -18.500884      -503.4347
  14   1.0000     -10.016119      -272.5525
  15   1.0000     -10.016096      -272.5518
  16   1.0000     -10.016060      -272.5508
  17   1.0000     -10.016030      -272.5500
  18   1.0000     -10.005419      -272.2613
  19   1.0000     -10.005347      -272.2593
  20   1.0000      -9.992001      -271.8962
  21   1.0000      -9.991928      -271.8942
  22   1.0000      -9.991157      -271.8732
  23   1.0000      -9.991118      -271.8721
  24   1.0000      -7.730349      -210.3535
  25   1.0000      -7.730333      -210.3531
  26   1.0000      -7.730222      -210.3500
  27   1.0000      -7.730121      -210.3473
  28   1.0000      -7.667014      -208.6301
  29   1.0000      -7.667011      -208.6300
  30   1.0000      -7.666025      -208.6031
  31   1.0000      -7.665938      -208.6008
  32   1.0000      -5.695607      -154.9853
  33   1.0000      -5.695586      -154.9848
  34   1.0000      -5.695483      -154.9820
  35   1.0000      -5.695379      -154.9791
  36   1.0000      -5.691712      -154.8794
  37   1.0000      -5.691699      -154.8790
  38   1.0000      -5.691604      -154.8764
  39   1.0000      -5.691500      -154.8736
  40   1.0000      -5.685110      -154.6997
  41   1.0000      -5.685089      -154.6991
  42   1.0000      -5.684967      -154.6958
  43   1.0000      -5.684859      -154.6929
  44   1.0000      -5.631883      -153.2513
  45   1.0000      -5.631872      -153.2510
  46   1.0000      -5.630897      -153.2245
  47   1.0000      -5.630794      -153.2217
  48   1.0000      -5.625704      -153.0832
  49   1.0000      -5.625692      -153.0829
  50   1.0000      -5.625000      -153.0640
  51   1.0000      -5.625000      -153.0640
  52   1.0000      -5.624725      -153.0565
  53   1.0000      -5.624624      -153.0538
  54   1.0000      -5.623983      -153.0364
  55   1.0000      -5.623878      -153.0335
  56   1.0000      -2.365453       -64.3672
  57   1.0000      -1.432172       -38.9714
  58   1.0000      -1.377976       -37.4966
  59   1.0000      -1.377341       -37.4794
  60   1.0000      -0.642602       -17.4861
  61   1.0000      -0.642526       -17.4840
  62   1.0000      -0.625926       -17.0323
  63   1.0000      -0.592804       -16.1310
  64   1.0000      -0.592337       -16.1183
  65   1.0000      -0.575088       -15.6489
  66   1.0000      -0.575002       -15.6466
  67   1.0000      -0.490940       -13.3592
  68   1.0000      -0.489078       -13.3085
  69   1.0000      -0.487244       -13.2586
  70   1.0000      -0.486093       -13.2273
  71   1.0000      -0.423145       -11.5144
  72   1.0000      -0.420387       -11.4393
  73   1.0000      -0.412101       -11.2138
  74   1.0000      -0.407104       -11.0779
  75   1.0000      -0.375994       -10.2313
  76   1.0000      -0.372896       -10.1470
  77   1.0000      -0.292097        -7.9484
  78   1.0000      -0.291934        -7.9439
  79   1.0000      -0.277016        -7.5380
  80   1.0000      -0.276762        -7.5311
  81   1.0000      -0.260143        -7.0788
  82   1.0000      -0.255553        -6.9540
  83   1.0000      -0.241249        -6.5647
  84   1.0000      -0.238430        -6.4880
  85   1.0000      -0.194705        -5.2982
  86   1.0000      -0.192636        -5.2419
  87   1.0000      -0.191843        -5.2203
  88   1.0000      -0.191585        -5.2133
  89   1.0000      -0.183810        -5.0017
  90   1.0000      -0.183616        -4.9965
  91   1.0000      -0.178335        -4.8527
  92   1.0000      -0.149798        -4.0762
  93   1.0000      -0.149564        -4.0698
  94   1.0000      -0.143612        -3.9079
  95   1.0000      -0.142770        -3.8850
  96   1.0000      -0.141759        -3.8575
  97   1.0000      -0.095905        -2.6097
  98   1.0000      -0.095858        -2.6084
  99   1.0000      -0.089522        -2.4360
 100   1.0000      -0.083190        -2.2637
 101   1.0000      -0.082042        -2.2325
 102   1.0000      -0.081005        -2.2043
 103   1.0000      -0.070963        -1.9310
 104   1.0000      -0.045713        -1.2439
 105   1.0000      -0.038221        -1.0400
 106   1.0000      -0.037350        -1.0164
 107   1.0000      -0.034465        -0.9378
 108   1.0000      -0.032106        -0.8736
 109   1.0000      -0.011981        -0.3260
 110   1.0000      -0.005445        -0.1482
 111   1.0000      -0.002422        -0.0659
 112   1.0000       0.007006         0.1906
 113   1.0000       0.011525         0.3136
 114   1.0000       0.034255         0.9321
 115   1.0000       0.059070         1.6074
 116   0.0000       0.185378         5.0444
 117   0.0000       0.189266         5.1502
 118   0.0000       0.195848         5.3293
 119   0.0000       0.196480         5.3465
 120   0.0000       0.196927         5.3586

MULLIKEN ATOMIC CHARGES AND SPIN POPULATIONS
--------------------------------------------
   0 V :    0.448831    1.200361
   1 S :   -0.254641   -0.024412
   2 S :   -0.253065   -0.024308
   3 S :   -0.253782   -0.024316
   4 S :   -0.255257   -0.024055
   5 O :   -0.506450   -0.139236
   6 C :   -0.118811    0.008559
   7 C :   -0.113250    0.009134
   8 C :   -0.113945    0.009311
   9 C :   -0.117221    0.008526
  10 S :   -0.044882   -0.000042
  11 S :   -0.045927   -0.000336
  12 S :   -0.044828   -0.000089
  13 S :   -0.046047   -0.000356
  14 C :   -0.336091    0.000400
  15 C :   -0.338689    0.000200
  16 C :   -0.338168    0.000164
  17 C :   -0.335163    0.000441
  18 C :   -0.084115    0.000131
  19 H :    0.147103   -0.000079
  20 H :    0.101170    0.000010
  21 H :    0.044322    0.000037
  22 H :    0.078220    0.000019
  23 H :    0.101400    0.000036
  24 H :    0.145856   -0.000123
  25 C :   -0.084199    0.000130
  26 H :    0.101253    0.000047
  27 H :    0.145439   -0.000130
  28 H :    0.078215    0.000012
  29 H :    0.044214    0.000034
  30 H :    0.147512   -0.000083
  31 H :    0.100994    0.000017
Sum of atomic charges         :   -2.0000000

LOEWDIN ATOMIC CHARGES AND SPIN POPULATIONS
-------------------------------------------
   0 V :   -0.240777    1.154387
   1 S :    0.087320   -0.016603
   2 S :    0.087721   -0.016470
   3 S :    0.087246   -0.016454
   4 S :    0.086716   -0.016386
   5 O :   -0.350937   -0.124663
   6 C :   -0.553594    0.009965
   7 C :   -0.551258    0.009913
   8 C :   -0.551171    0.009995
   9 C :   -0.553189    0.009896
  10 S :    0.335198   -0.000961
  11 S :    0.334978   -0.001117
  12 S :    0.335120   -0.000988
  13 S :    0.335104   -0.001119
  14 C :   -0.293531    0.000220
  15 C :   -0.293376    0.000126
  16 C :   -0.293420    0.000112
  17 C :   -0.293740    0.000241
  18 C :   -0.185010   -0.000036
  19 H :    0.066390   -0.000023
  20 H :    0.047429    0.000000
  21 H :    0.046879    0.000016
  22 H :    0.053670    0.000012
  23 H :    0.047457    0.000011
  24 H :    0.066033   -0.000031
  25 C :   -0.185031   -0.000040
  26 H :    0.047467    0.000016
  27 H :    0.065857   -0.000031
  28 H :    0.053689    0.000010
  29 H :    0.046859    0.000018
  30 H :    0.066503   -0.000023
  31 H :    0.047398    0.000005

  Mayer bond orders larger than 0.100000
B(  0-V ,  1-S ) :   0.7791 B(  0-V ,  2-S ) :   0.7986 B(  0-V ,  3-S ) :   0.7985
B(  0-V ,  4-S ) :   0.7783 B(  0-V ,  5-O ) :   2.1081 B(  1-S ,  8-C ) :   1.1387
B(  2-S ,  6-C ) :   1.1339 B(  3-S ,  9-C ) :   1.1337 B(  4-S ,  7-C ) :   1.1388
B(  6-C ,  7-C ) :   1.5183 B(  6-C , 10-S ) :   0.9540 B(  7-C , 11-S ) :   0.9517
B(  8-C ,  9-C ) :   1.5186 B(  8-C , 13-S ) :   0.9517 B(  9-C , 12-S ) :   0.9542
B( 10-S , 16-C ) :   1.0044 B( 11-S , 14-C ) :   1.0054 B( 12-S , 15-C ) :   1.0044
B( 13-S , 17-C ) :   1.0060 B( 14-C , 18-C ) :   0.8784 B( 14-C , 23-H ) :   0.9696
B( 14-C , 24-H ) :   0.9747 B( 15-C , 25-C ) :   0.8789 B( 15-C , 30-H ) :   0.9747
B( 15-C , 31-H ) :   0.9701 B( 16-C , 18-C ) :   0.8789 B( 16-C , 19-H ) :   0.9748
B( 16-C , 20-H ) :   0.9701 B( 17-C , 25-C ) :   0.8781 B( 17-C , 26-H ) :   0.9697
B( 17-C , 27-H ) :   0.9746 B( 18-C , 21-H ) :   0.9525 B( 18-C , 22-H ) :   0.9735
B( 25-C , 28-H ) :   0.9737 B( 25-C , 29-H ) :   0.9523

FINAL SINGLE POINT ENERGY     -4592.724054529817

DIPOLE MOMENT
-------------
                                X             Y             Z
Electronic contribution:     21.08437      -3.75509      15.92313
Nuclear contribution   :    -23.50391       4.18530     -17.74896
                        -----------------------------------------
Total Dipole Moment    :     -2.41953       0.43021      -1.82583
                        -----------------------------------------
Magnitude (a.u.)       :      3.06152
Magnitude (Debye)      :      7.78176

Rotational constants in cm-1:     0.012743     0.002547     0.002431
Rotational constants in MHz :   382.038362    76.360184    72.878346

                             ****ORCA TERMINATED NORMALLY****
TOTAL RUN TIME: 0 days 0 hours 43 minutes 3 seconds 571 msec
