                         Program Version 5.0.4 -  RELEASE  -
|  1> ! nofrozencore ReducedPop printbasis
|  2> ! B3LYP TZVP
|  3>
|  4> %basis
|  5> newgto V "CP(PPP)" end
|  6> end
|  7>
|  8> %pal
|  9> nprocs 4
| 10> end
| 11>
| 12> % sym SymThresh 1e-2 end
| 13> * xyz -2 2
| 14> V -0.20552334744459802 0.7670566631841071 0.7832584907685525
| 15> S -1.9180812663320101 1.0011841673366386 -0.9539691334889375
| 16> S -1.377574882776765 -1.2886694671400138 1.413997123673756
| 17> S 1.2466239697126094 1.7845558358284055 -0.9064619724372092
| 18> S 1.7810328929962027 -0.48547491262900117 1.4848037343778606
| 19> O -0.5036896444879674 1.8676680399163976 1.9008871873471151
| 20> C -0.1992469662602931 -2.1871159077558056 2.3683552467804674
| 21> C 1.135947069765695 -1.8483188023238588 2.3969830038279007
| 22> C -1.1951426878035445 2.1341783903180715 -2.10849345786324
| 23> C 0.11136229817033405 2.457852156164057 -2.0890638424148067
| 24> S -0.8575803975833077 -3.5939235221904617 3.2765256135339396
| 25> S 2.3481875040844535 -2.7847180611166693 3.3410706088010533
| 26> S 0.8609949659781593 3.584436103243646 -3.287771694380371
| 27> S -2.349976975669041 2.790183744135426 -3.33541198842269
| 28> C 2.413786754664097 -4.407266723229441 2.454142919378492
| 29> C 0.7390270363539462 2.638448201213578 -4.866699751894371
| 30> C -0.11453370996458324 -5.046858173082422 2.404935106667727
| 31> C -1.7577529316316662 2.0219387109569578 -4.904089651857927
| 32> C 1.3255993951631042 -5.455272437080446 2.8536501108956194
| 33> H -0.07249284765738172 -4.7558863069209965 1.3475891789922076
| 34> H -0.7419601915703067 -5.8905240780334776 2.728790906387258
| 35> H 1.5411559882152763 -6.244846437655655 2.0372371699371836
| 36> H 1.2483256552623352 -5.237130203237162 3.9886021111355454
| 37> H 3.3549642408909603 -4.8558538881307785 2.805068145054081
| 38> H 2.2757128832171296 -4.159653628364508 1.3939688818530227
| 39> C -0.5900585400931011 2.69884159501896 -5.5770874232204495
| 40> H -2.642411903781584 1.96736005333858 -5.551174770799962
| 41> H -1.5820468499432876 0.9566095368299924 -4.717902905904639
| 42> H -0.83528224012298 3.7170436604630086 -5.987145507467218
| 43> H -0.5055400371100797 2.422477175606605 -6.671013082209387
| 44> H 1.0725084877041928 1.612295923500178 -4.67655831879013
| 45> H 1.5654121436709953 3.0052220412404034 -5.488601248793652
| 46> *
| 47>
| 48> % eprnmr
| 49> gtensor true
| 50> Nuclei = all H {aiso,adip,aorb,fgrad,rho}
| 51> Nuclei = all V {aiso,adip,aorb,fgrad,rho}
| 52> end
| 53>
| 54>                          ****END OF INPUT****

CARTESIAN COORDINATES (ANGSTROEM)
---------------------------------
  V     -0.205735    0.767814    0.784148
  S     -1.918293    1.001941   -0.953080
  S     -1.377786   -1.287913    1.414886
  S      1.246413    1.785313   -0.905573
  S      1.780821   -0.484718    1.485693
  O     -0.503901    1.868425    1.901776
  C     -0.199458   -2.186359    2.369244
  C      1.135736   -1.847562    2.397872
  C     -1.195354    2.134935   -2.107604
  C      0.111151    2.458609   -2.088175
  S     -0.857792   -3.593167    3.277415
  S      2.347976   -2.783961    3.341960
  S      0.860784    3.585193   -3.286882
  S     -2.350188    2.790941   -3.334523
  C      2.413575   -4.406510    2.455032
  C      0.738816    2.639205   -4.865811
  C     -0.114745   -5.046101    2.405824
  C     -1.757964    2.022696   -4.903200
  C      1.325388   -5.454515    2.854539
  H     -0.072704   -4.755129    1.348478
  H     -0.742172   -5.889767    2.729680
  H      1.540945   -6.244089    2.038126
  H      1.248114   -5.236373    3.989491
  H      3.354753   -4.855097    2.805957
  H      2.275501   -4.158897    1.394858
  C     -0.590270    2.699599   -5.576198
  H     -2.642623    1.968117   -5.550286
  H     -1.582258    0.957366   -4.717014
  H     -0.835494    3.717801   -5.986256
  H     -0.505751    2.423234   -6.670124
  H      1.072297    1.613053   -4.675669
  H      1.565201    3.005979   -5.487712

 Total Charge           Charge          ....   -2
 Multiplicity           Mult            ....    2
 Number of Electrons    NEL             ....  233
 Basis Dimension        Dim             ....  517

ORBITAL ENERGIES
----------------
                 SPIN UP ORBITALS
  NO   OCC          E(Eh)            E(eV)
   0   1.0000    -196.640915     -5350.8713
   1   1.0000     -88.677725     -2413.0436
   2   1.0000     -88.677715     -2413.0433
   3   1.0000     -88.676718     -2413.0162
   4   1.0000     -88.676636     -2413.0140
   5   1.0000     -88.613376     -2411.2926
   6   1.0000     -88.613327     -2411.2912
   7   1.0000     -88.612414     -2411.2664
   8   1.0000     -88.612305     -2411.2634
   9   1.0000     -22.016706      -599.1050
  10   1.0000     -18.858006      -513.1524
  11   1.0000     -18.523528      -504.0508
  12   1.0000     -18.517756      -503.8938
  13   1.0000     -18.517721      -503.8928
  14   1.0000     -10.018124      -272.6070
  15   1.0000     -10.018104      -272.6065
  16   1.0000     -10.016756      -272.5698
  17   1.0000     -10.016744      -272.5695
  18   1.0000     -10.015915      -272.5469
  19   1.0000     -10.012346      -272.4498
  20   1.0000      -9.994038      -271.9516
  21   1.0000      -9.993407      -271.9344
  22   1.0000      -9.991635      -271.8862
  23   1.0000      -9.990847      -271.8648
  24   1.0000      -7.731352      -210.3808
  25   1.0000      -7.731341      -210.3805
  26   1.0000      -7.730446      -210.3561
  27   1.0000      -7.730385      -210.3545
  28   1.0000      -7.667856      -208.6530
  29   1.0000      -7.667815      -208.6519
  30   1.0000      -7.666779      -208.6237
  31   1.0000      -7.666693      -208.6213
  32   1.0000      -5.696621      -155.0129
  33   1.0000      -5.696615      -155.0128
  34   1.0000      -5.695574      -154.9845
  35   1.0000      -5.695519      -154.9830
  36   1.0000      -5.692720      -154.9068
  37   1.0000      -5.692718      -154.9067
  38   1.0000      -5.691747      -154.8803
  39   1.0000      -5.691678      -154.8784
  40   1.0000      -5.686042      -154.7251
  41   1.0000      -5.686037      -154.7249
  42   1.0000      -5.685370      -154.7068
  43   1.0000      -5.685307      -154.7051
  44   1.0000      -5.632650      -153.2722
  45   1.0000      -5.632596      -153.2707
  46   1.0000      -5.631679      -153.2458
  47   1.0000      -5.631580      -153.2431
  48   1.0000      -5.626276      -153.0988
  49   1.0000      -5.626237      -153.0977
  50   1.0000      -5.625914      -153.0889
  51   1.0000      -5.625879      -153.0879
  52   1.0000      -5.625236      -153.0705
  53   1.0000      -5.625151      -153.0681
  54   1.0000      -5.624712      -153.0562
  55   1.0000      -5.624622      -153.0537
  56   1.0000      -2.410409       -65.5906
  57   1.0000      -1.451768       -39.5046
  58   1.0000      -1.440193       -39.1896
  59   1.0000      -1.439111       -39.1602
  60   1.0000      -0.646247       -17.5853
  61   1.0000      -0.641956       -17.4685
  62   1.0000      -0.618984       -16.8434
  63   1.0000      -0.596037       -16.2190
  64   1.0000      -0.591184       -16.0869
  65   1.0000      -0.577783       -15.7223
  66   1.0000      -0.575163       -15.6510
  67   1.0000      -0.493596       -13.4314
  68   1.0000      -0.488478       -13.2922
  69   1.0000      -0.487147       -13.2559
  70   1.0000      -0.486736       -13.2448
  71   1.0000      -0.423900       -11.5349
  72   1.0000      -0.420241       -11.4353
  73   1.0000      -0.416932       -11.3453
  74   1.0000      -0.401015       -10.9122
  75   1.0000      -0.380651       -10.3580
  76   1.0000      -0.364504        -9.9187
  77   1.0000      -0.309320        -8.4170
  78   1.0000      -0.299878        -8.1601
  79   1.0000      -0.276290        -7.5182
  80   1.0000      -0.269200        -7.3253
  81   1.0000      -0.264319        -7.1925
  82   1.0000      -0.257573        -7.0089
  83   1.0000      -0.245745        -6.6871
  84   1.0000      -0.241040        -6.5590
  85   1.0000      -0.198743        -5.4081
  86   1.0000      -0.197400        -5.3715
  87   1.0000      -0.194027        -5.2797
  88   1.0000      -0.183330        -4.9887
  89   1.0000      -0.177004        -4.8165
  90   1.0000      -0.175609        -4.7786
  91   1.0000      -0.156817        -4.2672
  92   1.0000      -0.150192        -4.0869
  93   1.0000      -0.149109        -4.0575
  94   1.0000      -0.142831        -3.8866
  95   1.0000      -0.140370        -3.8197
  96   1.0000      -0.135616        -3.6903
  97   1.0000      -0.097736        -2.6595
  98   1.0000      -0.097594        -2.6557
  99   1.0000      -0.089152        -2.4259
 100   1.0000      -0.082336        -2.2405
 101   1.0000      -0.082257        -2.2383
 102   1.0000      -0.080963        -2.2031
 103   1.0000      -0.069564        -1.8929
 104   1.0000      -0.050793        -1.3821
 105   1.0000      -0.038884        -1.0581
 106   1.0000      -0.038786        -1.0554
 107   1.0000      -0.036780        -1.0008
 108   1.0000      -0.032745        -0.8910
 109   1.0000      -0.014091        -0.3834
 110   1.0000      -0.005285        -0.1438
 111   1.0000      -0.003990        -0.1086
 112   1.0000       0.005384         0.1465
 113   1.0000       0.009888         0.2691
 114   1.0000       0.015489         0.4215
 115   1.0000       0.032901         0.8953
 116   1.0000       0.059127         1.6089
 117   0.0000       0.186791         5.0828
 118   0.0000       0.187533         5.1030
 119   0.0000       0.189774         5.1640
 120   0.0000       0.194715         5.2985
 121   0.0000       0.210475         5.7273

                 SPIN DOWN ORBITALS
  NO   OCC          E(Eh)            E(eV)
   0   1.0000    -196.641056     -5350.8752
   1   1.0000     -88.677738     -2413.0439
   2   1.0000     -88.677729     -2413.0437
   3   1.0000     -88.676731     -2413.0165
   4   1.0000     -88.676650     -2413.0143
   5   1.0000     -88.613534     -2411.2968
   6   1.0000     -88.613485     -2411.2955
   7   1.0000     -88.612575     -2411.2707
   8   1.0000     -88.612466     -2411.2678
   9   1.0000     -22.002036      -598.7058
  10   1.0000     -18.861593      -513.2500
  11   1.0000     -18.518395      -503.9112
  12   1.0000     -18.502266      -503.4723
  13   1.0000     -18.501584      -503.4537
  14   1.0000     -10.018120      -272.6069
  15   1.0000     -10.018100      -272.6064
  16   1.0000     -10.016753      -272.5697
  17   1.0000     -10.016740      -272.5694
  18   1.0000     -10.015915      -272.5469
  19   1.0000     -10.012346      -272.4498
  20   1.0000      -9.993786      -271.9447
  21   1.0000      -9.993157      -271.9276
  22   1.0000      -9.991378      -271.8792
  23   1.0000      -9.990592      -271.8578
  24   1.0000      -7.731366      -210.3812
  25   1.0000      -7.731355      -210.3809
  26   1.0000      -7.730460      -210.3565
  27   1.0000      -7.730399      -210.3549
  28   1.0000      -7.668003      -208.6570
  29   1.0000      -7.667962      -208.6559
  30   1.0000      -7.666928      -208.6277
  31   1.0000      -7.666843      -208.6254
  32   1.0000      -5.696638      -155.0134
  33   1.0000      -5.696632      -155.0132
  34   1.0000      -5.695592      -154.9849
  35   1.0000      -5.695536      -154.9834
  36   1.0000      -5.692740      -154.9073
  37   1.0000      -5.692738      -154.9073
  38   1.0000      -5.691767      -154.8808
  39   1.0000      -5.691697      -154.8790
  40   1.0000      -5.686059      -154.7255
  41   1.0000      -5.686055      -154.7254
  42   1.0000      -5.685387      -154.7072
  43   1.0000      -5.685324      -154.7055
  44   1.0000      -5.632820      -153.2768
  45   1.0000      -5.632766      -153.2753
  46   1.0000      -5.631852      -153.2505
  47   1.0000      -5.631753      -153.2478
  48   1.0000      -5.626657      -153.1091
  49   1.0000      -5.626622      -153.1082
  50   1.0000      -5.626051      -153.0926
  51   1.0000      -5.626014      -153.0916
  52   1.0000      -5.625632      -153.0812
  53   1.0000      -5.625549      -153.0790
  54   1.0000      -5.624845      -153.0598
  55   1.0000      -5.624756      -153.0574
  56   1.0000      -2.366219       -64.3881
  57   1.0000      -1.432931       -38.9920
  58   1.0000      -1.378774       -37.5184
  59   1.0000      -1.378136       -37.5010
  60   1.0000      -0.646198       -17.5839
  61   1.0000      -0.641904       -17.4671
  62   1.0000      -0.626669       -17.0525
  63   1.0000      -0.595833       -16.2134
  64   1.0000      -0.590997       -16.0818
  65   1.0000      -0.577779       -15.7222
  66   1.0000      -0.575156       -15.6508
  67   1.0000      -0.493616       -13.4320
  68   1.0000      -0.488482       -13.2923
  69   1.0000      -0.487194       -13.2572
  70   1.0000      -0.486758       -13.2454
  71   1.0000      -0.424157       -11.5419
  72   1.0000      -0.420533       -11.4433
  73   1.0000      -0.416978       -11.3465
  74   1.0000      -0.401064       -10.9135
  75   1.0000      -0.380650       -10.3580
  76   1.0000      -0.364495        -9.9184
  77   1.0000      -0.309297        -8.4164
  78   1.0000      -0.299871        -8.1599
  79   1.0000      -0.276279        -7.5179
  80   1.0000      -0.269161        -7.3242
  81   1.0000      -0.264231        -7.1901
  82   1.0000      -0.257447        -7.0055
  83   1.0000      -0.245602        -6.6832
  84   1.0000      -0.240983        -6.5575
  85   1.0000      -0.198707        -5.4071
  86   1.0000      -0.196999        -5.3606
  87   1.0000      -0.193976        -5.2784
  88   1.0000      -0.181494        -4.9387
  89   1.0000      -0.176942        -4.8148
  90   1.0000      -0.175205        -4.7676
  91   1.0000      -0.156541        -4.2597
  92   1.0000      -0.149905        -4.0791
  93   1.0000      -0.148592        -4.0434
  94   1.0000      -0.142637        -3.8814
  95   1.0000      -0.140184        -3.8146
  96   1.0000      -0.135443        -3.6856
  97   1.0000      -0.097111        -2.6425
  98   1.0000      -0.096218        -2.6182
  99   1.0000      -0.089378        -2.4321
 100   1.0000      -0.082891        -2.2556
 101   1.0000      -0.082309        -2.2397
 102   1.0000      -0.081837        -2.2269
 103   1.0000      -0.070781        -1.9261
 104   1.0000      -0.046675        -1.2701
 105   1.0000      -0.038987        -1.0609
 106   1.0000      -0.038031        -1.0349
 107   1.0000      -0.035751        -0.9728
 108   1.0000      -0.032714        -0.8902
 109   1.0000      -0.013188        -0.3589
 110   1.0000      -0.006611        -0.1799
 111   1.0000      -0.002999        -0.0816
 112   1.0000       0.006228         0.1695
 113   1.0000       0.010782         0.2934
 114   1.0000       0.033162         0.9024
 115   1.0000       0.058339         1.5875
 116   0.0000       0.184345         5.0163
 117   0.0000       0.187644         5.1060
 118   0.0000       0.187948         5.1143
 119   0.0000       0.190109         5.1731
 120   0.0000       0.195337         5.3154

MULLIKEN ATOMIC CHARGES AND SPIN POPULATIONS
--------------------------------------------
   0 V :    0.446794    1.199326
   1 S :   -0.256701   -0.024483
   2 S :   -0.248607   -0.023645
   3 S :   -0.256946   -0.024422
   4 S :   -0.248727   -0.023558
   5 O :   -0.506039   -0.139001
   6 C :   -0.116605    0.008640
   7 C :   -0.115003    0.008593
   8 C :   -0.113171    0.009016
   9 C :   -0.113543    0.009035
  10 S :   -0.049302   -0.000146
  11 S :   -0.049337   -0.000186
  12 S :   -0.039803   -0.000227
  13 S :   -0.039867   -0.000261
  14 C :   -0.360533    0.000275
  15 C :   -0.324103    0.000334
  16 C :   -0.360630    0.000256
  17 C :   -0.323747    0.000352
  18 C :   -0.103523    0.000269
  19 H :    0.150950   -0.000109
  20 H :    0.105611    0.000019
  21 H :    0.058218    0.000021
  22 H :    0.106331   -0.000012
  23 H :    0.105485    0.000021
  24 H :    0.151011   -0.000112
  25 C :   -0.095688   -0.000051
  26 H :    0.100306    0.000044
  27 H :    0.147317   -0.000110
  28 H :    0.066229    0.000057
  29 H :    0.035785    0.000130
  30 H :    0.147473   -0.000107
  31 H :    0.100367    0.000041
Sum of atomic charges         :   -2.0000000

LOEWDIN ATOMIC CHARGES AND SPIN POPULATIONS
-------------------------------------------
   0 V :   -0.242962    1.153369
   1 S :    0.085004   -0.016630
   2 S :    0.093770   -0.015983
   3 S :    0.084777   -0.016557
   4 S :    0.093556   -0.015962
   5 O :   -0.350562   -0.124437
   6 C :   -0.560047    0.009853
   7 C :   -0.559484    0.009792
   8 C :   -0.548049    0.010053
   9 C :   -0.548403    0.010095
  10 S :    0.333161   -0.001036
  11 S :    0.333020   -0.001060
  12 S :    0.339021   -0.001044
  13 S :    0.338992   -0.001064
  14 C :   -0.305130    0.000169
  15 C :   -0.295044    0.000171
  16 C :   -0.305277    0.000162
  17 C :   -0.295131    0.000180
  18 C :   -0.223787   -0.000047
  19 H :    0.067530   -0.000027
  20 H :    0.048600    0.000002
  21 H :    0.075741    0.000034
  22 H :    0.084908    0.000026
  23 H :    0.048545    0.000003
  24 H :    0.067614   -0.000028
  25 C :   -0.195641   -0.000035
  26 H :    0.049927    0.000011
  27 H :    0.066619   -0.000031
  28 H :    0.054155    0.000012
  29 H :    0.047971    0.000028
  30 H :    0.066688   -0.000030
  31 H :    0.049918    0.000011

  Mayer bond orders larger than 0.100000
B(  0-V ,  1-S ) :   0.7904 B(  0-V ,  2-S ) :   0.7883 B(  0-V ,  3-S ) :   0.7925
B(  0-V ,  4-S ) :   0.7856 B(  0-V ,  5-O ) :   2.1086 B(  1-S ,  8-C ) :   1.1336
B(  2-S ,  6-C ) :   1.1448 B(  3-S ,  9-C ) :   1.1326 B(  4-S ,  7-C ) :   1.1459
B(  6-C ,  7-C ) :   1.4888 B(  6-C , 10-S ) :   0.9446 B(  7-C , 11-S ) :   0.9442
B(  8-C ,  9-C ) :   1.5328 B(  8-C , 13-S ) :   0.9522 B(  9-C , 12-S ) :   0.9524
B( 10-S , 16-C ) :   1.0077 B( 11-S , 14-C ) :   1.0074 B( 12-S , 15-C ) :   1.0069
B( 13-S , 17-C ) :   1.0074 B( 14-C , 18-C ) :   0.8724 B( 14-C , 23-H ) :   0.9742
B( 14-C , 24-H ) :   0.9702 B( 15-C , 25-C ) :   0.9087 B( 15-C , 30-H ) :   0.9746
B( 15-C , 31-H ) :   0.9633 B( 16-C , 18-C ) :   0.8719 B( 16-C , 19-H ) :   0.9701
B( 16-C , 20-H ) :   0.9742 B( 17-C , 25-C ) :   0.9086 B( 17-C , 26-H ) :   0.9633
B( 17-C , 27-H ) :   0.9745 B( 18-C , 21-H ) :   0.9428 B( 18-C , 22-H ) :   0.9421
B( 25-C , 28-H ) :   0.9612 B( 25-C , 29-H ) :   0.9359

FINAL SINGLE POINT ENERGY     -4592.660659417020

DIPOLE MOMENT
-------------
                                X             Y             Z
Electronic contribution:     -4.82586      18.03230      18.97136
Nuclear contribution   :      5.33826     -19.92648     -21.24691
                        -----------------------------------------
Total Dipole Moment    :      0.51241      -1.89418      -2.27555
                        -----------------------------------------
Magnitude (a.u.)       :      3.00477
Magnitude (Debye)      :      7.63751

Rotational constants in cm-1:     0.012767     0.002548     0.002431
Rotational constants in MHz :   382.757606    76.393407    72.881886

                             ****ORCA TERMINATED NORMALLY****
TOTAL RUN TIME: 0 days 0 hours 43 minutes 28 seconds 185 msec
