                         Program Version 5.0.4 -  RELEASE  -
|  1> ! nofrozencore ReducedPop printbasis
|  2> ! B3LYP TZVP
|  3>
|  4> %basis
|  5> newgto V "CP(PPP)" end
|  6> end
|  7>
|  8> %pal
|  9> nprocs 8
| 10> end
| 11>
| 12> % sym SymThresh 1e-2 end
| 13> * xyz -2 2
| 14> V -0.9438119778787857 0.46097898056498304 0.3752833864465674
| 15> S -0.5777779497467347 -1.6110342400371787 1.6316007097468093
| 16> S 0.9144063699335963 1.37446217089119 1.6830344890749982
| 17> S -1.5250388186882733 -1.0752381681894647 -1.4416736264811951
| 18> S -0.0582738576357848 1.9249582054948158 -1.379737107799679
| 19> O -2.296056940568371 1.1158926911319966 0.9154705385947726
| 20> C 1.4342513908506618 2.790538767096468 0.7605926723047425
| 21> C 1.0297129988196831 3.0190903888309224 -0.516804541100916
| 22> C -1.3763568163151914 -2.8485024531804397 0.6537972865060925
| 23> C -1.7714712136630657 -2.6253899601070283 -0.6274696206369871
| 24> S 2.5653724845009553 3.8900864890090463 1.6360753269931287
| 25> S 1.585976602330147 4.443711512219849 -1.4740495201139294
| 26> S -2.553137225641458 -3.8966681452964833 -1.6415992251778475
| 27> S -1.592705382190668 -4.439957607129742 1.4768219283023307
| 28> C 3.385348729789956 4.103769705292487 -1.715351901415317
| 29> C -1.1974442504536709 -5.125229007985625 -1.8944359389359502
| 30> C 4.151441664874949 3.6731624572332406 0.71525278097088
| 31> C -0.44513705549873234 -5.551975731553061 0.5513587357055024
| 32> C 4.3068259318375866 4.498411848047631 -0.5616661003888413
| 33> H 4.2612407588079675 2.606891107219922 0.5100734184334581
| 34> H 4.930731835535481 3.958845217514563 1.4309723038636974
| 35> H 5.348721661236326 4.389563726127964 -0.9093088340123534
| 36> H 4.15896674811227 5.550330076213335 -0.32866162147736455
| 37> H 3.659084904787604 4.672623159251127 -2.6112754206545334
| 38> H 3.4831022477110496 3.042585122908642 -1.9509169003558926
| 39> C -0.9375952735145657 -6.111894566205604 -0.7706392501673993
| 40> H -0.23211246751674108 -6.309410015999683 1.2002111044658685
| 41> H 0.5312621007173884 -4.954376176653604 0.3730576558450088
| 42> H -2.337730016660008 -6.886184252164242 -0.4751809745528577
| 43> H -0.3058624213589507 -6.818434142990615 -1.088129551275621
| 44> H -0.23193671659942233 -4.52162588743319 -2.1025256398248966
| 45> H -1.4456072802491733 -5.61946758886308 -2.749890961559557
| 46> *
| 47>
| 48> % eprnmr
| 49> gtensor true
| 50> Nuclei = all H {aiso,adip,aorb,fgrad,rho}
| 51> Nuclei = all V {aiso,adip,aorb,fgrad,rho}
| 52> end
| 53>
| 54>                          ****END OF INPUT****

CARTESIAN COORDINATES (ANGSTROEM)
---------------------------------
  V     -0.944776    0.461540    0.375689
  S     -0.578742   -1.610473    1.632007
  S      0.913443    1.375023    1.683440
  S     -1.526003   -1.074677   -1.441268
  S     -0.059238    1.925519   -1.379331
  O     -2.297021    1.116454    0.915876
  C      1.433288    2.791100    0.760999
  C      1.028749    3.019651   -0.516399
  C     -1.377321   -2.847941    0.654203
  C     -1.772435   -2.624829   -0.627064
  S      2.564409    3.890648    1.636481
  S      1.585013    4.444273   -1.473644
  S     -2.554101   -3.896107   -1.641193
  S     -1.593669   -4.439397    1.477228
  C      3.384385    4.104331   -1.714946
  C     -1.198408   -5.124668   -1.894030
  C      4.150478    3.673724    0.715659
  C     -0.446101   -5.551415    0.551765
  C      4.305862    4.498973   -0.561260
  H      4.260277    2.607452    0.510479
  H      4.929768    3.959406    1.431378
  H      5.347758    4.390125   -0.908903
  H      4.158003    5.550891   -0.328256
  H      3.658121    4.673184   -2.610870
  H      3.482138    3.043146   -1.950511
  C     -0.938559   -6.111333   -0.770233
  H     -0.233076   -6.308849    1.200617
  H      0.530298   -4.953815    0.373464
  H     -2.338694   -6.885623   -0.474775
  H     -0.306826   -6.817873   -1.087724
  H     -0.232901   -4.521065   -2.102120
  H     -1.446571   -5.618906   -2.749485

 Total Charge           Charge          ....   -2
 Multiplicity           Mult            ....    2
 Number of Electrons    NEL             ....  233
 Basis Dimension        Dim             ....  517

ORBITAL ENERGIES
----------------
                 SPIN UP ORBITALS
  NO   OCC          E(Eh)            E(eV)
   0   1.0000    -196.641274     -5350.8811
   1   1.0000     -88.678847     -2413.0741
   2   1.0000     -88.678843     -2413.0740
   3   1.0000     -88.677310     -2413.0323
   4   1.0000     -88.677262     -2413.0310
   5   1.0000     -88.613581     -2411.2981
   6   1.0000     -88.613572     -2411.2979
   7   1.0000     -88.612986     -2411.2819
   8   1.0000     -88.612976     -2411.2817
   9   1.0000     -22.017076      -599.1151
  10   1.0000     -18.858338      -513.1615
  11   1.0000     -18.523902      -504.0610
  12   1.0000     -18.518126      -503.9038
  13   1.0000     -18.518085      -503.9027
  14   1.0000     -10.034587      -273.0550
  15   1.0000     -10.019156      -272.6351
  16   1.0000     -10.018928      -272.6289
  17   1.0000     -10.016200      -272.5547
  18   1.0000     -10.016169      -272.5538
  19   1.0000     -10.004768      -272.2436
  20   1.0000      -9.993733      -271.9433
  21   1.0000      -9.993019      -271.9239
  22   1.0000      -9.992740      -271.9163
  23   1.0000      -9.992019      -271.8967
  24   1.0000      -7.732382      -210.4088
  25   1.0000      -7.732372      -210.4085
  26   1.0000      -7.730959      -210.3701
  27   1.0000      -7.730906      -210.3687
  28   1.0000      -7.668026      -208.6576
  29   1.0000      -7.667977      -208.6563
  30   1.0000      -7.667412      -208.6409
  31   1.0000      -7.667390      -208.6403
  32   1.0000      -5.697699      -155.0423
  33   1.0000      -5.697695      -155.0422
  34   1.0000      -5.696210      -155.0018
  35   1.0000      -5.696153      -155.0002
  36   1.0000      -5.693757      -154.9350
  37   1.0000      -5.693753      -154.9349
  38   1.0000      -5.692308      -154.8956
  39   1.0000      -5.692260      -154.8943
  40   1.0000      -5.687042      -154.7523
  41   1.0000      -5.687039      -154.7522
  42   1.0000      -5.685705      -154.7159
  43   1.0000      -5.685658      -154.7146
  44   1.0000      -5.632878      -153.2784
  45   1.0000      -5.632837      -153.2773
  46   1.0000      -5.632260      -153.2616
  47   1.0000      -5.632231      -153.2608
  48   1.0000      -5.626438      -153.1032
  49   1.0000      -5.626401      -153.1021
  50   1.0000      -5.626015      -153.0916
  51   1.0000      -5.625978      -153.0907
  52   1.0000      -5.625849      -153.0871
  53   1.0000      -5.625841      -153.0869
  54   1.0000      -5.625396      -153.0748
  55   1.0000      -5.625388      -153.0746
  56   1.0000      -2.410781       -65.6007
  57   1.0000      -1.452141       -39.5148
  58   1.0000      -1.440563       -39.1997
  59   1.0000      -1.439485       -39.1704
  60   1.0000      -0.646958       -17.6046
  61   1.0000      -0.644611       -17.5408
  62   1.0000      -0.619348       -16.8533
  63   1.0000      -0.596532       -16.2325
  64   1.0000      -0.594544       -16.1784
  65   1.0000      -0.580891       -15.8069
  66   1.0000      -0.576509       -15.6876
  67   1.0000      -0.493892       -13.4395
  68   1.0000      -0.492862       -13.4115
  69   1.0000      -0.491175       -13.3655
  70   1.0000      -0.487771       -13.2729
  71   1.0000      -0.426984       -11.6188
  72   1.0000      -0.422011       -11.4835
  73   1.0000      -0.413711       -11.2577
  74   1.0000      -0.408275       -11.1097
  75   1.0000      -0.376232       -10.2378
  76   1.0000      -0.368909       -10.0385
  77   1.0000      -0.302596        -8.2341
  78   1.0000      -0.293621        -7.9898
  79   1.0000      -0.278267        -7.5720
  80   1.0000      -0.275747        -7.5035
  81   1.0000      -0.261305        -7.1105
  82   1.0000      -0.255718        -6.9584
  83   1.0000      -0.241811        -6.5800
  84   1.0000      -0.239737        -6.5236
  85   1.0000      -0.207817        -5.6550
  86   1.0000      -0.198741        -5.4080
  87   1.0000      -0.194832        -5.3016
  88   1.0000      -0.192686        -5.2433
  89   1.0000      -0.185645        -5.0516
  90   1.0000      -0.183201        -4.9852
  91   1.0000      -0.159886        -4.3507
  92   1.0000      -0.152119        -4.1394
  93   1.0000      -0.151472        -4.1218
  94   1.0000      -0.144867        -3.9420
  95   1.0000      -0.143685        -3.9099
  96   1.0000      -0.117599        -3.2000
  97   1.0000      -0.098506        -2.6805
  98   1.0000      -0.097995        -2.6666
  99   1.0000      -0.090974        -2.4755
 100   1.0000      -0.084901        -2.3103
 101   1.0000      -0.083058        -2.2601
 102   1.0000      -0.081362        -2.2140
 103   1.0000      -0.071106        -1.9349
 104   1.0000      -0.051426        -1.3994
 105   1.0000      -0.039445        -1.0733
 106   1.0000      -0.039232        -1.0676
 107   1.0000      -0.036714        -0.9990
 108   1.0000      -0.033350        -0.9075
 109   1.0000      -0.014173        -0.3857
 110   1.0000      -0.005557        -0.1512
 111   1.0000      -0.004538        -0.1235
 112   1.0000       0.004911         0.1336
 113   1.0000       0.009385         0.2554
 114   1.0000       0.015082         0.4104
 115   1.0000       0.032243         0.8774
 116   1.0000       0.058423         1.5898
 117   0.0000       0.155179         4.2226
 118   0.0000       0.186938         5.0868
 119   0.0000       0.194461         5.2915
 120   0.0000       0.195822         5.3286
 121   0.0000       0.206750         5.6259

                 SPIN DOWN ORBITALS
  NO   OCC          E(Eh)            E(eV)
   0   1.0000    -196.641415     -5350.8849
   1   1.0000     -88.678860     -2413.0745
   2   1.0000     -88.678856     -2413.0743
   3   1.0000     -88.677323     -2413.0326
   4   1.0000     -88.677275     -2413.0313
   5   1.0000     -88.613740     -2411.3024
   6   1.0000     -88.613731     -2411.3022
   7   1.0000     -88.613146     -2411.2863
   8   1.0000     -88.613136     -2411.2860
   9   1.0000     -22.002405      -598.7159
  10   1.0000     -18.861925      -513.2591
  11   1.0000     -18.518770      -503.9213
  12   1.0000     -18.502627      -503.4821
  13   1.0000     -18.501956      -503.4638
  14   1.0000     -10.034587      -273.0550
  15   1.0000     -10.019152      -272.6350
  16   1.0000     -10.018925      -272.6288
  17   1.0000     -10.016196      -272.5546
  18   1.0000     -10.016166      -272.5537
  19   1.0000     -10.004767      -272.2436
  20   1.0000      -9.993478      -271.9364
  21   1.0000      -9.992766      -271.9170
  22   1.0000      -9.992486      -271.9094
  23   1.0000      -9.991767      -271.8898
  24   1.0000      -7.732395      -210.4092
  25   1.0000      -7.732386      -210.4089
  26   1.0000      -7.730973      -210.3705
  27   1.0000      -7.730920      -210.3690
  28   1.0000      -7.668174      -208.6616
  29   1.0000      -7.668125      -208.6603
  30   1.0000      -7.667561      -208.6449
  31   1.0000      -7.667539      -208.6443
  32   1.0000      -5.697716      -155.0427
  33   1.0000      -5.697712      -155.0426
  34   1.0000      -5.696227      -155.0022
  35   1.0000      -5.696170      -155.0007
  36   1.0000      -5.693778      -154.9356
  37   1.0000      -5.693774      -154.9355
  38   1.0000      -5.692329      -154.8961
  39   1.0000      -5.692280      -154.8948
  40   1.0000      -5.687059      -154.7527
  41   1.0000      -5.687056      -154.7527
  42   1.0000      -5.685722      -154.7164
  43   1.0000      -5.685674      -154.7151
  44   1.0000      -5.633049      -153.2830
  45   1.0000      -5.633008      -153.2819
  46   1.0000      -5.632432      -153.2663
  47   1.0000      -5.632403      -153.2655
  48   1.0000      -5.626827      -153.1138
  49   1.0000      -5.626792      -153.1128
  50   1.0000      -5.626239      -153.0977
  51   1.0000      -5.626232      -153.0976
  52   1.0000      -5.626150      -153.0953
  53   1.0000      -5.626112      -153.0943
  54   1.0000      -5.625532      -153.0785
  55   1.0000      -5.625523      -153.0783
  56   1.0000      -2.366590       -64.3982
  57   1.0000      -1.433305       -39.0022
  58   1.0000      -1.379140       -37.5283
  59   1.0000      -1.378508       -37.5111
  60   1.0000      -0.646912       -17.6034
  61   1.0000      -0.644562       -17.5394
  62   1.0000      -0.627032       -17.0624
  63   1.0000      -0.596333       -16.2271
  64   1.0000      -0.594345       -16.1729
  65   1.0000      -0.580887       -15.8067
  66   1.0000      -0.576505       -15.6875
  67   1.0000      -0.493915       -13.4401
  68   1.0000      -0.492855       -13.4113
  69   1.0000      -0.491209       -13.3665
  70   1.0000      -0.487786       -13.2733
  71   1.0000      -0.427250       -11.6261
  72   1.0000      -0.422310       -11.4916
  73   1.0000      -0.413722       -11.2580
  74   1.0000      -0.408378       -11.1125
  75   1.0000      -0.376209       -10.2372
  76   1.0000      -0.368901       -10.0383
  77   1.0000      -0.302590        -8.2339
  78   1.0000      -0.293603        -7.9893
  79   1.0000      -0.278248        -7.5715
  80   1.0000      -0.275728        -7.5029
  81   1.0000      -0.261086        -7.1045
  82   1.0000      -0.255657        -6.9568
  83   1.0000      -0.241727        -6.5777
  84   1.0000      -0.239706        -6.5227
  85   1.0000      -0.207774        -5.6538
  86   1.0000      -0.198500        -5.4015
  87   1.0000      -0.194625        -5.2960
  88   1.0000      -0.192652        -5.2423
  89   1.0000      -0.185541        -5.0488
  90   1.0000      -0.181088        -4.9276
  91   1.0000      -0.159680        -4.3451
  92   1.0000      -0.151439        -4.1209
  93   1.0000      -0.151164        -4.1134
  94   1.0000      -0.144663        -3.9365
  95   1.0000      -0.143496        -3.9047
  96   1.0000      -0.117512        -3.1977
  97   1.0000      -0.097509        -2.6533
  98   1.0000      -0.096999        -2.6395
  99   1.0000      -0.091083        -2.4785
 100   1.0000      -0.084904        -2.3104
 101   1.0000      -0.083253        -2.2654
 102   1.0000      -0.082597        -2.2476
 103   1.0000      -0.072439        -1.9712
 104   1.0000      -0.047257        -1.2859
 105   1.0000      -0.039509        -1.0751
 106   1.0000      -0.038612        -1.0507
 107   1.0000      -0.035669        -0.9706
 108   1.0000      -0.033318        -0.9066
 109   1.0000      -0.013263        -0.3609
 110   1.0000      -0.006895        -0.1876
 111   1.0000      -0.003525        -0.0959
 112   1.0000       0.005750         0.1565
 113   1.0000       0.010284         0.2798
 114   1.0000       0.032493         0.8842
 115   1.0000       0.057631         1.5682
 116   0.0000       0.155182         4.2227
 117   0.0000       0.184223         5.0130
 118   0.0000       0.188161         5.1201
 119   0.0000       0.195051         5.3076
 120   0.0000       0.195995         5.3333

MULLIKEN ATOMIC CHARGES AND SPIN POPULATIONS
--------------------------------------------
   0 V :    0.447222    1.199433
   1 S :   -0.252042   -0.024083
   2 S :   -0.253614   -0.024181
   3 S :   -0.252233   -0.024016
   4 S :   -0.254002   -0.024118
   5 O :   -0.505762   -0.139048
   6 C :   -0.117228    0.008856
   7 C :   -0.115265    0.008870
   8 C :   -0.117677    0.008943
   9 C :   -0.117879    0.008874
  10 S :   -0.044359   -0.000166
  11 S :   -0.044280   -0.000201
  12 S :   -0.028844   -0.000183
  13 S :   -0.028720   -0.000212
  14 C :   -0.338814    0.000286
  15 C :   -0.336219    0.000296
  16 C :   -0.338506    0.000271
  17 C :   -0.335607    0.000315
  18 C :   -0.084006    0.000135
  19 H :    0.146957   -0.000101
  20 H :    0.101686    0.000020
  21 H :    0.043889    0.000039
  22 H :    0.080629    0.000018
  23 H :    0.101547    0.000021
  24 H :    0.147165   -0.000103
  25 C :   -0.066916    0.000171
  26 H :    0.130618    0.000036
  27 H :    0.131851   -0.000118
  28 H :   -0.058557    0.000006
  29 H :    0.095718    0.000018
  30 H :    0.132179   -0.000114
  31 H :    0.131068    0.000034
Sum of atomic charges         :   -2.0000000

LOEWDIN ATOMIC CHARGES AND SPIN POPULATIONS
-------------------------------------------
   0 V :   -0.243239    1.153411
   1 S :    0.088969   -0.016288
   2 S :    0.088161   -0.016386
   3 S :    0.088748   -0.016223
   4 S :    0.087878   -0.016356
   5 O :   -0.350174   -0.124481
   6 C :   -0.553222    0.009992
   7 C :   -0.552655    0.009947
   8 C :   -0.552497    0.009976
   9 C :   -0.552844    0.009999
  10 S :    0.337043   -0.001026
  11 S :    0.336908   -0.001046
  12 S :    0.346393   -0.001025
  13 S :    0.346381   -0.001039
  14 C :   -0.293465    0.000164
  15 C :   -0.296396    0.000163
  16 C :   -0.293580    0.000156
  17 C :   -0.296768    0.000173
  18 C :   -0.184310   -0.000036
  19 H :    0.065658   -0.000027
  20 H :    0.047568    0.000004
  21 H :    0.047071    0.000017
  22 H :    0.052498    0.000013
  23 H :    0.047562    0.000005
  24 H :    0.065785   -0.000027
  25 C :   -0.148458   -0.000012
  26 H :    0.035694    0.000010
  27 H :    0.081241   -0.000042
  28 H :    0.006618    0.000006
  29 H :    0.030774    0.000008
  30 H :    0.081218   -0.000041
  31 H :    0.035439    0.000009

  Mayer bond orders larger than 0.100000
B(  0-V ,  1-S ) :   0.7867 B(  0-V ,  2-S ) :   0.7915 B(  0-V ,  3-S ) :   0.7887
B(  0-V ,  4-S ) :   0.7888 B(  0-V ,  5-O ) :   2.1091 B(  1-S ,  8-C ) :   1.1417
B(  2-S ,  6-C ) :   1.1368 B(  3-S ,  9-C ) :   1.1407 B(  4-S ,  7-C ) :   1.1377
B(  6-C ,  7-C ) :   1.5174 B(  6-C , 10-S ) :   0.9540 B(  7-C , 11-S ) :   0.9536
B(  8-C ,  9-C ) :   1.5147 B(  8-C , 13-S ) :   0.9672 B(  9-C , 12-S ) :   0.9671
B( 10-S , 16-C ) :   1.0053 B( 11-S , 14-C ) :   1.0052 B( 12-S , 15-C ) :   1.0045
B( 13-S , 17-C ) :   1.0050 B( 14-C , 18-C ) :   0.8775 B( 14-C , 23-H ) :   0.9701
B( 14-C , 24-H ) :   0.9754 B( 15-C , 25-C ) :   0.9081 B( 15-C , 30-H ) :   0.9558
B( 15-C , 31-H ) :   0.9693 B( 16-C , 18-C ) :   0.8774 B( 16-C , 19-H ) :   0.9753
B( 16-C , 20-H ) :   0.9700 B( 17-C , 25-C ) :   0.9080 B( 17-C , 26-H ) :   0.9693
B( 17-C , 27-H ) :   0.9556 B( 18-C , 21-H ) :   0.9528 B( 18-C , 22-H ) :   0.9745
B( 25-C , 28-H ) :   0.8937 B( 25-C , 29-H ) :   0.9467

FINAL SINGLE POINT ENERGY     -4592.641036130603

DIPOLE MOMENT
-------------
                                X             Y             Z
Electronic contribution:    -21.98280      11.35962       8.83665
Nuclear contribution   :     24.83042     -12.34440      -9.89681
                        -----------------------------------------
Total Dipole Moment    :      2.84762      -0.98479      -1.06016
                        -----------------------------------------
Magnitude (a.u.)       :      3.19416
Magnitude (Debye)      :      8.11892

Rotational constants in cm-1:     0.012769     0.002548     0.002431
Rotational constants in MHz :   382.819846    76.384130    72.875941

                             ****ORCA TERMINATED NORMALLY****
TOTAL RUN TIME: 0 days 0 hours 27 minutes 38 seconds 576 msec
