                         Program Version 5.0.4 -  RELEASE  -
|  1> ! nofrozencore ReducedPop printbasis
|  2> ! B3LYP TZVP
|  3>
|  4> %basis
|  5> newgto V "CP(PPP)" end
|  6> end
|  7>
|  8> %pal
|  9> nprocs 4
| 10> end
| 11>
| 12> % sym SymThresh 1e-2 end
| 13> * xyz -2 2
| 14> V -0.05975190839801437 -0.12767057935471346 -1.1064817458291063
| 15> S 1.2301378143665387 1.9083358036989992 -0.6607389180349598
| 16> S 1.9131763686429275 -1.3414596430842562 -0.31293781198749476
| 17> S -1.9469364395854458 1.2675709842508838 -0.4040922919786928
| 18> S -1.2810662365816905 -1.9909878678228232 -0.08573445267075182
| 19> O -0.14336193043010173 -0.3039193375398509 -2.691066684303214
| 20> C 1.1173953131173013 -2.9948831217145777 0.0843942244625334
| 21> C 0.14067964743057015 -3.1930690232968044 0.1548493101282653
| 22> C 0.23396454061063662 3.2210796910515307 -0.5910524660875949
| 23> C -1.535268765501965 2.86480465538593 -0.4482101503147547
| 24> S 2.5666106687682713 -4.2077492054563495 0.35809981245505
| 25> S -0.6707850543837677 -4.863957296644207 0.5974810232391792
| 26> S -2.560278114529199 4.205507452071006 -0.3432422386770568
| 27> S 0.6665286844197207 4.856214367105985 -0.6046936581180063
| 28> C -0.143460088062823 -5.0667652274327315 2.3588599418145924
| 29> C -2.1934342504301525 4.971119905253716 1.2929351302088574
| 30> C 2.416930438406673 -4.55006840090604 2.1694806505483473
| 31> C 0.2914159232943879 5.473107112559584 1.0910578866884992
| 32> C 1.3083672755635 -5.5499907568891444 2.560481595005438
| 33> H 2.1207323355039187 -3.587039951099454 2.617331315071617
| 34> H 3.348314911471483 -5.091128789301215 2.398232127762043
| 35> H 1.443588821087221 -5.831522928648621 3.622513725912771
| 36> H 1.4623393916646308 -6.5030520830131575 2.0412749643629944
| 37> H -0.7512883710999761 -5.917630941086928 2.704142017002173
| 38> H -0.18031315349955554 -4.050330162585964 2.7848044384005486
| 39> C -1.0974404887318245 6.007602847677529 1.342867992362205
| 40> H 1.1382391115062707 6.1532727790557855 1.369419668834397
| 41> H 0.7066877572052451 4.7591950469189435 1.8400544600251392
| 42> H -1.3127840280280985 6.766745633119171 0.5823807804537738
| 43> H -1.097799646830407 6.419736418392882 2.361932798752787
| 44> H -2.178493542253641 4.175399145824175 2.073885205385278
| 45> H -3.182535310883987 5.279257095909451 1.7220073184952702
| 46> *
| 47>
| 48> % eprnmr
| 49> gtensor true
| 50> Nuclei = all H {aiso,adip,aorb,fgrad,rho}
| 51> Nuclei = all V {aiso,adip,aorb,fgrad,rho}
| 52> end
| 53>
| 54>                          ****END OF INPUT****

CARTESIAN COORDINATES (ANGSTROEM)
---------------------------------
  V     -0.059793   -0.127883   -1.107649
  S      1.230097    1.908123   -0.661906
  S      1.913136   -1.341673   -0.314105
  S     -1.946977    1.267358   -0.405259
  S     -1.281107   -1.991201   -0.086901
  O     -0.143403   -0.304132   -2.692234
  C      1.117355   -2.995096    0.083227
  C      0.140639   -3.193282    0.153682
  C      0.233924    3.220867   -0.592219
  C     -1.535310    2.864592   -0.449377
  S      2.566570   -4.207962    0.356933
  S     -0.670826   -4.864170    0.596314
  S     -2.560319    4.205295   -0.344409
  S      0.666488    4.856001   -0.605861
  C     -0.143501   -5.066978    2.357693
  C     -2.193475    4.970907    1.291768
  C      2.416890   -4.550281    2.168314
  C      0.291375    5.472894    1.089891
  C      1.308326   -5.550204    2.559315
  H      2.120692   -3.587253    2.616164
  H      3.348274   -5.091342    2.397065
  H      1.443548   -5.831736    3.621347
  H      1.462299   -6.503265    2.040108
  H     -0.751329   -5.917844    2.702975
  H     -0.180354   -4.050543    2.783638
  C     -1.097481    6.007390    1.341701
  H      1.138198    6.153060    1.368253
  H      0.706647    4.758982    1.838888
  H     -1.312825    6.766533    0.581214
  H     -1.097840    6.419524    2.360766
  H     -2.178534    4.175186    2.072718
  H     -3.182576    5.279044    1.720840

 Total Charge           Charge          ....   -2
 Multiplicity           Mult            ....    2
 Number of Electrons    NEL             ....  233
 Basis Dimension        Dim             ....  517

ORBITAL ENERGIES
----------------
                 SPIN UP ORBITALS
  NO   OCC          E(Eh)            E(eV)
   0   1.0000    -196.642967     -5350.9272
   1   1.0000     -88.681911     -2413.1575
   2   1.0000     -88.681874     -2413.1565
   3   1.0000     -88.671323     -2412.8694
   4   1.0000     -88.671252     -2412.8674
   5   1.0000     -88.618339     -2411.4276
   6   1.0000     -88.618273     -2411.4258
   7   1.0000     -88.613860     -2411.3057
   8   1.0000     -88.613750     -2411.3027
   9   1.0000     -22.018874      -599.1640
  10   1.0000     -18.859238      -513.1859
  11   1.0000     -18.525338      -504.1001
  12   1.0000     -18.520147      -503.9588
  13   1.0000     -18.520026      -503.9555
  14   1.0000     -10.028232      -272.8821
  15   1.0000     -10.028225      -272.8819
  16   1.0000     -10.008055      -272.3330
  17   1.0000     -10.005799      -272.2716
  18   1.0000     -10.005713      -272.2693
  19   1.0000     -10.002494      -272.1817
  20   1.0000      -9.987373      -271.7702
  21   1.0000      -9.987173      -271.7648
  22   1.0000      -9.968372      -271.2532
  23   1.0000      -9.954599      -270.8784
  24   1.0000      -7.735057      -210.4816
  25   1.0000      -7.735033      -210.4810
  26   1.0000      -7.725624      -210.2249
  27   1.0000      -7.725561      -210.2232
  28   1.0000      -7.674526      -208.8345
  29   1.0000      -7.674453      -208.8325
  30   1.0000      -7.667047      -208.6310
  31   1.0000      -7.666924      -208.6276
  32   1.0000      -5.700331      -155.1139
  33   1.0000      -5.700312      -155.1134
  34   1.0000      -5.696787      -155.0175
  35   1.0000      -5.696759      -155.0167
  36   1.0000      -5.690725      -154.8525
  37   1.0000      -5.690669      -154.8510
  38   1.0000      -5.689390      -154.8162
  39   1.0000      -5.689368      -154.8156
  40   1.0000      -5.686521      -154.7381
  41   1.0000      -5.686450      -154.7362
  42   1.0000      -5.680928      -154.5859
  43   1.0000      -5.680868      -154.5843
  44   1.0000      -5.638144      -153.4217
  45   1.0000      -5.638072      -153.4197
  46   1.0000      -5.633757      -153.3023
  47   1.0000      -5.633679      -153.3002
  48   1.0000      -5.633102      -153.2845
  49   1.0000      -5.632984      -153.2813
  50   1.0000      -5.632700      -153.2736
  51   1.0000      -5.632626      -153.2716
  52   1.0000      -5.625475      -153.0770
  53   1.0000      -5.625359      -153.0738
  54   1.0000      -5.623980      -153.0363
  55   1.0000      -5.623859      -153.0330
  56   1.0000      -2.412385       -65.6443
  57   1.0000      -1.453272       -39.5455
  58   1.0000      -1.442518       -39.2529
  59   1.0000      -1.441094       -39.2142
  60   1.0000      -0.665550       -18.1105
  61   1.0000      -0.636857       -17.3298
  62   1.0000      -0.627673       -17.0798
  63   1.0000      -0.620155       -16.8753
  64   1.0000      -0.582020       -15.8376
  65   1.0000      -0.579564       -15.7707
  66   1.0000      -0.574574       -15.6350
  67   1.0000      -0.508956       -13.8494
  68   1.0000      -0.501966       -13.6592
  69   1.0000      -0.493745       -13.4355
  70   1.0000      -0.466029       -12.6813
  71   1.0000      -0.439376       -11.9560
  72   1.0000      -0.432879       -11.7792
  73   1.0000      -0.410313       -11.1652
  74   1.0000      -0.405916       -11.0455
  75   1.0000      -0.391403       -10.6506
  76   1.0000      -0.320724        -8.7273
  77   1.0000      -0.317689        -8.6448
  78   1.0000      -0.274547        -7.4708
  79   1.0000      -0.271156        -7.3785
  80   1.0000      -0.270847        -7.3701
  81   1.0000      -0.264449        -7.1960
  82   1.0000      -0.255242        -6.9455
  83   1.0000      -0.236055        -6.4234
  84   1.0000      -0.234220        -6.3734
  85   1.0000      -0.210909        -5.7391
  86   1.0000      -0.202827        -5.5192
  87   1.0000      -0.189863        -5.1664
  88   1.0000      -0.184413        -5.0181
  89   1.0000      -0.182690        -4.9712
  90   1.0000      -0.174815        -4.7570
  91   1.0000      -0.173711        -4.7269
  92   1.0000      -0.162223        -4.4143
  93   1.0000      -0.160666        -4.3719
  94   1.0000      -0.155239        -4.2243
  95   1.0000      -0.141691        -3.8556
  96   1.0000      -0.123579        -3.3627
  97   1.0000      -0.112406        -3.0587
  98   1.0000      -0.106599        -2.9007
  99   1.0000      -0.098087        -2.6691
 100   1.0000      -0.084448        -2.2979
 101   1.0000      -0.082747        -2.2517
 102   1.0000      -0.064250        -1.7483
 103   1.0000      -0.059147        -1.6095
 104   1.0000      -0.054206        -1.4750
 105   1.0000      -0.048346        -1.3156
 106   1.0000      -0.040492        -1.1018
 107   1.0000      -0.030416        -0.8277
 108   1.0000      -0.018360        -0.4996
 109   1.0000      -0.017007        -0.4628
 110   1.0000      -0.004627        -0.1259
 111   1.0000      -0.003990        -0.1086
 112   1.0000       0.008776         0.2388
 113   1.0000       0.010906         0.2968
 114   1.0000       0.016575         0.4510
 115   1.0000       0.019046         0.5183
 116   1.0000       0.085446         2.3251
 117   0.0000       0.169199         4.6041
 118   0.0000       0.169341         4.6080
 119   0.0000       0.193551         5.2668
 120   0.0000       0.199507         5.4289
 121   0.0000       0.203147         5.5279

                 SPIN DOWN ORBITALS
  NO   OCC          E(Eh)            E(eV)
   0   1.0000    -196.643100     -5350.9308
   1   1.0000     -88.681922     -2413.1578
   2   1.0000     -88.681885     -2413.1568
   3   1.0000     -88.671340     -2412.8698
   4   1.0000     -88.671268     -2412.8679
   5   1.0000     -88.618471     -2411.4312
   6   1.0000     -88.618405     -2411.4294
   7   1.0000     -88.614030     -2411.3103
   8   1.0000     -88.613919     -2411.3073
   9   1.0000     -22.004317      -598.7679
  10   1.0000     -18.862778      -513.2823
  11   1.0000     -18.520199      -503.9602
  12   1.0000     -18.504743      -503.5397
  13   1.0000     -18.504092      -503.5219
  14   1.0000     -10.028231      -272.8820
  15   1.0000     -10.028223      -272.8818
  16   1.0000     -10.008054      -272.3330
  17   1.0000     -10.005799      -272.2716
  18   1.0000     -10.005715      -272.2693
  19   1.0000     -10.002493      -272.1817
  20   1.0000      -9.987174      -271.7648
  21   1.0000      -9.986982      -271.7596
  22   1.0000      -9.968033      -271.2440
  23   1.0000      -9.954270      -270.8695
  24   1.0000      -7.735069      -210.4819
  25   1.0000      -7.735045      -210.4813
  26   1.0000      -7.725641      -210.2254
  27   1.0000      -7.725578      -210.2237
  28   1.0000      -7.674650      -208.8378
  29   1.0000      -7.674578      -208.8359
  30   1.0000      -7.667202      -208.6352
  31   1.0000      -7.667079      -208.6318
  32   1.0000      -5.700348      -155.1144
  33   1.0000      -5.700329      -155.1138
  34   1.0000      -5.696802      -155.0179
  35   1.0000      -5.696773      -155.0171
  36   1.0000      -5.690743      -154.8530
  37   1.0000      -5.690686      -154.8514
  38   1.0000      -5.689405      -154.8166
  39   1.0000      -5.689384      -154.8160
  40   1.0000      -5.686547      -154.7388
  41   1.0000      -5.686475      -154.7369
  42   1.0000      -5.680951      -154.5865
  43   1.0000      -5.680891      -154.5849
  44   1.0000      -5.638283      -153.4255
  45   1.0000      -5.638211      -153.4235
  46   1.0000      -5.633918      -153.3067
  47   1.0000      -5.633846      -153.3047
  48   1.0000      -5.633282      -153.2894
  49   1.0000      -5.633163      -153.2862
  50   1.0000      -5.632973      -153.2810
  51   1.0000      -5.632896      -153.2789
  52   1.0000      -5.625929      -153.0893
  53   1.0000      -5.625813      -153.0862
  54   1.0000      -5.624094      -153.0394
  55   1.0000      -5.623972      -153.0361
  56   1.0000      -2.368504       -64.4503
  57   1.0000      -1.434381       -39.0315
  58   1.0000      -1.381339       -37.5882
  59   1.0000      -1.380971       -37.5781
  60   1.0000      -0.665029       -18.0964
  61   1.0000      -0.636856       -17.3297
  62   1.0000      -0.628141       -17.0926
  63   1.0000      -0.627035       -17.0625
  64   1.0000      -0.582004       -15.8371
  65   1.0000      -0.579490       -15.7687
  66   1.0000      -0.574586       -15.6353
  67   1.0000      -0.508946       -13.8491
  68   1.0000      -0.501908       -13.6576
  69   1.0000      -0.493849       -13.4383
  70   1.0000      -0.466108       -12.6835
  71   1.0000      -0.439542       -11.9605
  72   1.0000      -0.432865       -11.7788
  73   1.0000      -0.410691       -11.1755
  74   1.0000      -0.405941       -11.0462
  75   1.0000      -0.391379       -10.6500
  76   1.0000      -0.320660        -8.7256
  77   1.0000      -0.317655        -8.6438
  78   1.0000      -0.274530        -7.4703
  79   1.0000      -0.271133        -7.3779
  80   1.0000      -0.270839        -7.3699
  81   1.0000      -0.264305        -7.1921
  82   1.0000      -0.255066        -6.9407
  83   1.0000      -0.235914        -6.4195
  84   1.0000      -0.234095        -6.3701
  85   1.0000      -0.210373        -5.7245
  86   1.0000      -0.202489        -5.5100
  87   1.0000      -0.188159        -5.1201
  88   1.0000      -0.184342        -5.0162
  89   1.0000      -0.182520        -4.9666
  90   1.0000      -0.174801        -4.7566
  91   1.0000      -0.173432        -4.7193
  92   1.0000      -0.162171        -4.4129
  93   1.0000      -0.160076        -4.3559
  94   1.0000      -0.154541        -4.2053
  95   1.0000      -0.141553        -3.8519
  96   1.0000      -0.123201        -3.3525
  97   1.0000      -0.112190        -3.0528
  98   1.0000      -0.106384        -2.8949
  99   1.0000      -0.096498        -2.6258
 100   1.0000      -0.085291        -2.3209
 101   1.0000      -0.084488        -2.2990
 102   1.0000      -0.063836        -1.7371
 103   1.0000      -0.059036        -1.6064
 104   1.0000      -0.053668        -1.4604
 105   1.0000      -0.048007        -1.3063
 106   1.0000      -0.039173        -1.0660
 107   1.0000      -0.030235        -0.8227
 108   1.0000      -0.019138        -0.5208
 109   1.0000      -0.015917        -0.4331
 110   1.0000      -0.002229        -0.0606
 111   1.0000       0.003363         0.0915
 112   1.0000       0.009634         0.2622
 113   1.0000       0.010515         0.2861
 114   1.0000       0.016448         0.4476
 115   1.0000       0.085356         2.3227
 116   0.0000       0.165177         4.4947
 117   0.0000       0.169529         4.6131
 118   0.0000       0.182839         4.9753
 119   0.0000       0.195030         5.3070
 120   0.0000       0.199862         5.4385

MULLIKEN ATOMIC CHARGES AND SPIN POPULATIONS
--------------------------------------------
   0 V :    0.432208    1.192694
   1 S :   -0.180691   -0.018009
   2 S :   -0.297143   -0.026760
   3 S :   -0.181186   -0.018181
   4 S :   -0.297694   -0.026688
   5 O :   -0.503059   -0.137167
   6 C :   -0.057972    0.013251
   7 C :   -0.055639    0.013203
   8 C :   -0.204143    0.004718
   9 C :   -0.204353    0.004147
  10 S :   -0.059540   -0.000465
  11 S :   -0.059464   -0.000456
  12 S :   -0.016335   -0.000359
  13 S :   -0.016277   -0.000386
  14 C :   -0.344133   -0.000022
  15 C :   -0.311863    0.000118
  16 C :   -0.343119   -0.000027
  17 C :   -0.312305    0.000196
  18 C :   -0.096513    0.000333
  19 H :    0.151922   -0.000127
  20 H :    0.113845    0.000014
  21 H :    0.051287    0.000002
  22 H :    0.076192   -0.000058
  23 H :    0.113785    0.000015
  24 H :    0.152458   -0.000127
  25 C :   -0.072535    0.000365
  26 H :    0.079004   -0.000055
  27 H :    0.125689   -0.000056
  28 H :    0.079911   -0.000070
  29 H :    0.032988    0.000075
  30 H :    0.125689   -0.000045
  31 H :    0.078988   -0.000070
Sum of atomic charges         :   -2.0000000

LOEWDIN ATOMIC CHARGES AND SPIN POPULATIONS
-------------------------------------------
   0 V :   -0.248963    1.146394
   1 S :    0.186924   -0.011582
   2 S :    0.031223   -0.018388
   3 S :    0.186209   -0.011735
   4 S :    0.030681   -0.018347
   5 O :   -0.351504   -0.122380
   6 C :   -0.464936    0.013745
   7 C :   -0.464727    0.013682
   8 C :   -0.675667    0.006907
   9 C :   -0.676319    0.006459
  10 S :    0.305374   -0.000913
  11 S :    0.305121   -0.000899
  12 S :    0.377164   -0.001407
  13 S :    0.377043   -0.001407
  14 C :   -0.291041    0.000084
  15 C :   -0.323767   -0.000030
  16 C :   -0.291084    0.000081
  17 C :   -0.323680    0.000044
  18 C :   -0.195872   -0.000024
  19 H :    0.072678   -0.000059
  20 H :    0.057554   -0.000014
  21 H :    0.044850   -0.000006
  22 H :    0.049699   -0.000010
  23 H :    0.057561   -0.000014
  24 H :    0.072863   -0.000059
  25 C :   -0.175863   -0.000042
  26 H :    0.045502   -0.000028
  27 H :    0.064976   -0.000023
  28 H :    0.056682   -0.000001
  29 H :    0.050813    0.000031
  30 H :    0.065016   -0.000023
  31 H :    0.045487   -0.000035

  Mayer bond orders larger than 0.100000
B(  0-V ,  1-S ) :   0.7774 B(  0-V ,  2-S ) :   0.8042 B(  0-V ,  3-S ) :   0.7800
B(  0-V ,  4-S ) :   0.8022 B(  0-V ,  5-O ) :   2.1031 B(  1-S ,  8-C ) :   1.2240
B(  1-S ,  9-C ) :   0.1162 B(  2-S ,  6-C ) :   1.0234 B(  3-S ,  8-C ) :   0.1155
B(  3-S ,  9-C ) :   1.2218 B(  4-S ,  7-C ) :   1.0230 B(  6-C ,  7-C ) :   1.8200
B(  6-C , 10-S ) :   0.8675 B(  7-C , 11-S ) :   0.8676 B(  8-C ,  9-C ) :   1.0863
B(  8-C , 13-S ) :   1.0991 B(  9-C , 12-S ) :   1.0996 B( 10-S , 16-C ) :   1.0402
B( 11-S , 14-C ) :   1.0398 B( 12-S , 15-C ) :   0.9461 B( 13-S , 17-C ) :   0.9471
B( 14-C , 18-C ) :   0.8642 B( 14-C , 23-H ) :   0.9720 B( 14-C , 24-H ) :   0.9736
B( 15-C , 25-C ) :   0.9098 B( 15-C , 30-H ) :   0.9588 B( 15-C , 31-H ) :   0.9571
B( 16-C , 18-C ) :   0.8646 B( 16-C , 19-H ) :   0.9734 B( 16-C , 20-H ) :   0.9720
B( 17-C , 25-C ) :   0.9093 B( 17-C , 26-H ) :   0.9571 B( 17-C , 27-H ) :   0.9588
B( 18-C , 21-H ) :   0.9505 B( 18-C , 22-H ) :   0.9647 B( 25-C , 28-H ) :   0.9839
B( 25-C , 29-H ) :   0.9486

FINAL SINGLE POINT ENERGY     -4592.350300999963

DIPOLE MOMENT
-------------
                                X             Y             Z
Electronic contribution:     -1.34386      -3.58117     -26.57439
Nuclear contribution   :      1.69920       3.00309      29.61400
                        -----------------------------------------
Total Dipole Moment    :      0.35534      -0.57809       3.03961
                        -----------------------------------------
Magnitude (a.u.)       :      3.11443
Magnitude (Debye)      :      7.91625

Rotational constants in cm-1:     0.012739     0.002548     0.002430
Rotational constants in MHz :   381.890836    76.401810    72.852720

                             ****ORCA TERMINATED NORMALLY****
TOTAL RUN TIME: 0 days 0 hours 47 minutes 32 seconds 641 msec
