                         Program Version 5.0.4 -  RELEASE  -
|  1> ! nofrozencore ReducedPop printbasis
|  2> ! B3LYP TZVP
|  3>
|  4> %basis
|  5> newgto V "CP(PPP)" end
|  6> end
|  7>
|  8> %pal
|  9> nprocs 8
| 10> end
| 11>
| 12> % sym SymThresh 1e-2 end
| 13> * xyz -2 2
| 14> V -0.40009670042661133 -1.0390316235464376 -0.066768319188011
| 15> S 0.4134800197660062 -0.4140344806029081 -2.285999093640062
| 16> S 1.958645266129015 -1.1805399661912115 0.5690389960799305
| 17> S -2.2251330508817233 0.5108372852698602 -0.609081560949694
| 18> S -0.6878053030693558 -0.28565530206653705 2.2498662679199284
| 19> O -0.9761308291870879 -2.5248454938732987 -0.16591349324339658
| 20> C 1.9364960246076204 -1.108577900705548 2.3357553927616572
| 21> C 0.8330664572416419 -0.7303474928459307 3.033619952345304
| 22> C -0.9707295780130423 0.3377470757116611 -3.076305357198444
| 23> C -2.056065363007813 0.7364405446769324 -2.361000614023744
| 24> S 3.4992105797509327 -1.5275856412377211 3.136417490569692
| 25> S 0.8070091010606942 -0.6276569028348211 4.833813941910881
| 26> S -3.516475548577282 1.481220333350919 -3.1115563233809374
| 27> S -0.8085925914851301 0.689151539056956 -4.84471578239692
| 28> C 1.9661896019590965 0.8092760403824939 5.182358368537896
| 29> C -2.765515349902284 3.347463396378331 -3.656986265636651
| 30> C 4.04306880688037 0.05361166653906419 3.841485733871056
| 31> C -0.7594375452745684 2.2923171243296148 -4.9434886002691005
| 32> C 3.4543968779455096 0.45583874957394727 5.191820742659378
| 33> H 3.8621287018769523 0.8285310435894705 3.0929189314504817
| 34> H 5.127590959125921 -0.05565036733694484 3.9462520424771874
| 35> H 4.018869783594204 1.3343542886298507 5.545783808962678
| 36> H 3.6281425881783713 -0.3476175434051111 5.915819406787309
| 37> H 1.6654632192594039 1.1886880886092628 6.1635337943826976
| 38> H 1.7454139918832805 1.5774243046521066 4.4384871862400255
| 39> C -1.99313490996305 3.193116923530944 -4.989151649012472
| 40> H -0.26344273191738204 2.4315087705272873 -5.914164908823374
| 41> H -0.06021932575062937 2.6984134207235826 -4.199492288170797
| 42> H -2.6888068219158727 2.8208383923720897 -5.751646778751744
| 43> H -1.5869862926101963 4.177843469599324 -5.359931604828053
| 44> H -2.1064407569968044 3.6138245255436012 -2.825821103893043
| 45> H -3.604707068111123 4.044172525078535 -3.7139779795299837
| 46> *
| 47>
| 48> % eprnmr
| 49> gtensor true
| 50> Nuclei = all H {aiso,adip,aorb,fgrad,rho}
| 51> Nuclei = all V {aiso,adip,aorb,fgrad,rho}
| 52> end
| 53>
| 54>                          ****END OF INPUT****

CARTESIAN COORDINATES (ANGSTROEM)
---------------------------------
  V     -0.400480   -1.040155   -0.066772
  S      0.413097   -0.415158   -2.286003
  S      1.958262   -1.181663    0.569035
  S     -2.225516    0.509714   -0.609085
  S     -0.688189   -0.286779    2.249863
  O     -0.976514   -2.525969   -0.165917
  C      1.936113   -1.109701    2.335752
  C      0.832683   -0.731471    3.033616
  C     -0.971113    0.336624   -3.076309
  C     -2.056449    0.735317   -2.361004
  S      3.498827   -1.528709    3.136414
  S      0.806626   -0.628780    4.833810
  S     -3.516859    1.480097   -3.111560
  S     -0.808976    0.688028   -4.844719
  C      1.965806    0.808153    5.182355
  C     -2.765899    3.346340   -3.656990
  C      4.042685    0.052488    3.841482
  C     -0.759821    2.291194   -4.943492
  C      3.454013    0.454716    5.191817
  H      3.861745    0.827408    3.092915
  H      5.127208   -0.056774    3.946248
  H      4.018486    1.333231    5.545780
  H      3.627759   -0.348741    5.915816
  H      1.665080    1.187565    6.163530
  H      1.745031    1.576301    4.438484
  C     -1.993518    3.191994   -4.989155
  H     -0.263826    2.430386   -5.914168
  H     -0.060603    2.697290   -4.199496
  H     -2.689190    2.819715   -5.751650
  H     -1.587370    4.176720   -5.359935
  H     -2.106824    3.612701   -2.825825
  H     -3.605091    4.043049   -3.713982

 Total Charge           Charge          ....   -2
 Multiplicity           Mult            ....    2
 Number of Electrons    NEL             ....  233
 Basis Dimension        Dim             ....  517

ORBITAL ENERGIES
----------------
                 SPIN UP ORBITALS
  NO   OCC          E(Eh)            E(eV)
   0   1.0000    -196.640540     -5350.8611
   1   1.0000     -88.679127     -2413.0817
   2   1.0000     -88.677278     -2413.0314
   3   1.0000     -88.676059     -2412.9982
   4   1.0000     -88.669852     -2412.8293
   5   1.0000     -88.614165     -2411.3140
   6   1.0000     -88.612589     -2411.2711
   7   1.0000     -88.611979     -2411.2545
   8   1.0000     -88.611201     -2411.2334
   9   1.0000     -22.016348      -599.0953
  10   1.0000     -18.857615      -513.1418
  11   1.0000     -18.523173      -504.0412
  12   1.0000     -18.517402      -503.8841
  13   1.0000     -18.517357      -503.8829
  14   1.0000     -10.023200      -272.7451
  15   1.0000     -10.016795      -272.5708
  16   1.0000     -10.014275      -272.5023
  17   1.0000     -10.007506      -272.3181
  18   1.0000     -10.005206      -272.2555
  19   1.0000     -10.004880      -272.2466
  20   1.0000      -9.992310      -271.9046
  21   1.0000      -9.992085      -271.8984
  22   1.0000      -9.991359      -271.8787
  23   1.0000      -9.991192      -271.8742
  24   1.0000      -7.730443      -210.3561
  25   1.0000      -7.730255      -210.3509
  26   1.0000      -7.730123      -210.3473
  27   1.0000      -7.729404      -210.3278
  28   1.0000      -7.668687      -208.6756
  29   1.0000      -7.667035      -208.6306
  30   1.0000      -7.666393      -208.6132
  31   1.0000      -7.665521      -208.5894
  32   1.0000      -5.695737      -154.9889
  33   1.0000      -5.695653      -154.9866
  34   1.0000      -5.695449      -154.9810
  35   1.0000      -5.694261      -154.9487
  36   1.0000      -5.691875      -154.8838
  37   1.0000      -5.691863      -154.8835
  38   1.0000      -5.691529      -154.8744
  39   1.0000      -5.689889      -154.8297
  40   1.0000      -5.685170      -154.7014
  41   1.0000      -5.685027      -154.6975
  42   1.0000      -5.684702      -154.6886
  43   1.0000      -5.684150      -154.6736
  44   1.0000      -5.633481      -153.2948
  45   1.0000      -5.631869      -153.2510
  46   1.0000      -5.631243      -153.2339
  47   1.0000      -5.630390      -153.2107
  48   1.0000      -5.627080      -153.1206
  49   1.0000      -5.626770      -153.1122
  50   1.0000      -5.625472      -153.0769
  51   1.0000      -5.625034      -153.0649
  52   1.0000      -5.624834      -153.0595
  53   1.0000      -5.624370      -153.0469
  54   1.0000      -5.623996      -153.0367
  55   1.0000      -5.623434      -153.0214
  56   1.0000      -2.410033       -65.5803
  57   1.0000      -1.451392       -39.4944
  58   1.0000      -1.439829       -39.1797
  59   1.0000      -1.438729       -39.1498
  60   1.0000      -0.662375       -18.0242
  61   1.0000      -0.644292       -17.5321
  62   1.0000      -0.618647       -16.8342
  63   1.0000      -0.593926       -16.1615
  64   1.0000      -0.592801       -16.1309
  65   1.0000      -0.577850       -15.7241
  66   1.0000      -0.576084       -15.6760
  67   1.0000      -0.496198       -13.5022
  68   1.0000      -0.491073       -13.3628
  69   1.0000      -0.486913       -13.2496
  70   1.0000      -0.478359       -13.0168
  71   1.0000      -0.425742       -11.5850
  72   1.0000      -0.421557       -11.4711
  73   1.0000      -0.411541       -11.1986
  74   1.0000      -0.405647       -11.0382
  75   1.0000      -0.375683       -10.2228
  76   1.0000      -0.371921       -10.1205
  77   1.0000      -0.301508        -8.2044
  78   1.0000      -0.293203        -7.9785
  79   1.0000      -0.277916        -7.5625
  80   1.0000      -0.277296        -7.5456
  81   1.0000      -0.259013        -7.0481
  82   1.0000      -0.253747        -6.9048
  83   1.0000      -0.242727        -6.6049
  84   1.0000      -0.239122        -6.5069
  85   1.0000      -0.201031        -5.4703
  86   1.0000      -0.195335        -5.3153
  87   1.0000      -0.192512        -5.2385
  88   1.0000      -0.191450        -5.2096
  89   1.0000      -0.185361        -5.0439
  90   1.0000      -0.184829        -5.0294
  91   1.0000      -0.179921        -4.8959
  92   1.0000      -0.150057        -4.0833
  93   1.0000      -0.149088        -4.0569
  94   1.0000      -0.143030        -3.8920
  95   1.0000      -0.142330        -3.8730
  96   1.0000      -0.138081        -3.7574
  97   1.0000      -0.097452        -2.6518
  98   1.0000      -0.095175        -2.5898
  99   1.0000      -0.088944        -2.4203
 100   1.0000      -0.082537        -2.2459
 101   1.0000      -0.080425        -2.1885
 102   1.0000      -0.080269        -2.1842
 103   1.0000      -0.069514        -1.8916
 104   1.0000      -0.050027        -1.3613
 105   1.0000      -0.038676        -1.0524
 106   1.0000      -0.037138        -1.0106
 107   1.0000      -0.034921        -0.9502
 108   1.0000      -0.031503        -0.8572
 109   1.0000      -0.013400        -0.3646
 110   1.0000      -0.004522        -0.1230
 111   1.0000      -0.003201        -0.0871
 112   1.0000       0.006134         0.1669
 113   1.0000       0.010494         0.2856
 114   1.0000       0.015887         0.4323
 115   1.0000       0.033169         0.9026
 116   1.0000       0.059295         1.6135
 117   0.0000       0.171289         4.6610
 118   0.0000       0.191650         5.2150
 119   0.0000       0.196046         5.3347
 120   0.0000       0.196407         5.3445
 121   0.0000       0.210377         5.7247

                 SPIN DOWN ORBITALS
  NO   OCC          E(Eh)            E(eV)
   0   1.0000    -196.640681     -5350.8650
   1   1.0000     -88.679141     -2413.0821
   2   1.0000     -88.677291     -2413.0318
   3   1.0000     -88.676072     -2412.9986
   4   1.0000     -88.669865     -2412.8297
   5   1.0000     -88.614317     -2411.3182
   6   1.0000     -88.612748     -2411.2755
   7   1.0000     -88.612141     -2411.2589
   8   1.0000     -88.611367     -2411.2379
   9   1.0000     -22.001680      -598.6961
  10   1.0000     -18.861190      -513.2391
  11   1.0000     -18.518043      -503.9016
  12   1.0000     -18.501907      -503.4625
  13   1.0000     -18.501228      -503.4440
  14   1.0000     -10.023195      -272.7450
  15   1.0000     -10.016791      -272.5707
  16   1.0000     -10.014271      -272.5022
  17   1.0000     -10.007506      -272.3181
  18   1.0000     -10.005203      -272.2554
  19   1.0000     -10.004880      -272.2466
  20   1.0000      -9.992060      -271.8978
  21   1.0000      -9.991831      -271.8916
  22   1.0000      -9.991106      -271.8718
  23   1.0000      -9.990933      -271.8671
  24   1.0000      -7.730458      -210.3564
  25   1.0000      -7.730269      -210.3513
  26   1.0000      -7.730138      -210.3477
  27   1.0000      -7.729417      -210.3281
  28   1.0000      -7.668829      -208.6794
  29   1.0000      -7.667182      -208.6346
  30   1.0000      -7.666543      -208.6172
  31   1.0000      -7.665676      -208.5936
  32   1.0000      -5.695754      -154.9893
  33   1.0000      -5.695667      -154.9870
  34   1.0000      -5.695466      -154.9815
  35   1.0000      -5.694282      -154.9493
  36   1.0000      -5.691899      -154.8845
  37   1.0000      -5.691884      -154.8840
  38   1.0000      -5.691548      -154.8749
  39   1.0000      -5.689905      -154.8302
  40   1.0000      -5.685188      -154.7018
  41   1.0000      -5.685043      -154.6979
  42   1.0000      -5.684721      -154.6891
  43   1.0000      -5.684163      -154.6740
  44   1.0000      -5.633649      -153.2994
  45   1.0000      -5.632041      -153.2556
  46   1.0000      -5.631414      -153.2386
  47   1.0000      -5.630566      -153.2155
  48   1.0000      -5.627449      -153.1307
  49   1.0000      -5.626902      -153.1158
  50   1.0000      -5.625859      -153.0874
  51   1.0000      -5.625230      -153.0703
  52   1.0000      -5.625168      -153.0686
  53   1.0000      -5.624506      -153.0506
  54   1.0000      -5.624405      -153.0478
  55   1.0000      -5.623575      -153.0253
  56   1.0000      -2.365854       -64.3782
  57   1.0000      -1.432564       -38.9820
  58   1.0000      -1.378431       -37.5090
  59   1.0000      -1.377743       -37.4903
  60   1.0000      -0.662348       -18.0234
  61   1.0000      -0.644243       -17.5307
  62   1.0000      -0.626305       -17.0426
  63   1.0000      -0.593732       -16.1563
  64   1.0000      -0.592578       -16.1249
  65   1.0000      -0.577843       -15.7239
  66   1.0000      -0.576079       -15.6759
  67   1.0000      -0.496193       -13.5021
  68   1.0000      -0.491099       -13.3635
  69   1.0000      -0.486931       -13.2501
  70   1.0000      -0.478401       -13.0180
  71   1.0000      -0.425968       -11.5912
  72   1.0000      -0.421847       -11.4790
  73   1.0000      -0.411572       -11.1994
  74   1.0000      -0.405757       -11.0412
  75   1.0000      -0.375649       -10.2219
  76   1.0000      -0.371939       -10.1210
  77   1.0000      -0.301492        -8.2040
  78   1.0000      -0.293186        -7.9780
  79   1.0000      -0.277892        -7.5618
  80   1.0000      -0.277273        -7.5450
  81   1.0000      -0.258863        -7.0440
  82   1.0000      -0.253722        -6.9041
  83   1.0000      -0.242593        -6.6013
  84   1.0000      -0.239035        -6.5045
  85   1.0000      -0.200919        -5.4673
  86   1.0000      -0.194881        -5.3030
  87   1.0000      -0.192450        -5.2368
  88   1.0000      -0.191363        -5.2073
  89   1.0000      -0.185297        -5.0422
  90   1.0000      -0.184781        -5.0281
  91   1.0000      -0.177925        -4.8416
  92   1.0000      -0.149380        -4.0648
  93   1.0000      -0.148757        -4.0479
  94   1.0000      -0.142749        -3.8844
  95   1.0000      -0.142132        -3.8676
  96   1.0000      -0.137907        -3.7526
  97   1.0000      -0.095931        -2.6104
  98   1.0000      -0.094689        -2.5766
  99   1.0000      -0.089153        -2.4260
 100   1.0000      -0.083069        -2.2604
 101   1.0000      -0.081672        -2.2224
 102   1.0000      -0.079946        -2.1754
 103   1.0000      -0.070732        -1.9247
 104   1.0000      -0.045872        -1.2482
 105   1.0000      -0.038453        -1.0464
 106   1.0000      -0.036652        -0.9973
 107   1.0000      -0.034018        -0.9257
 108   1.0000      -0.031452        -0.8559
 109   1.0000      -0.012490        -0.3399
 110   1.0000      -0.005838        -0.1589
 111   1.0000      -0.002272        -0.0618
 112   1.0000       0.007021         0.1910
 113   1.0000       0.011389         0.3099
 114   1.0000       0.033422         0.9094
 115   1.0000       0.058505         1.5920
 116   0.0000       0.171442         4.6652
 117   0.0000       0.184935         5.0323
 118   0.0000       0.192490         5.2379
 119   0.0000       0.196115         5.3366
 120   0.0000       0.196734         5.3534

MULLIKEN ATOMIC CHARGES AND SPIN POPULATIONS
--------------------------------------------
   0 V :    0.447306    1.199212
   1 S :   -0.252599   -0.022903
   2 S :   -0.255267   -0.023852
   3 S :   -0.253930   -0.025455
   4 S :   -0.252198   -0.024364
   5 O :   -0.506228   -0.138748
   6 C :   -0.113651    0.009123
   7 C :   -0.118649    0.008588
   8 C :   -0.096954    0.009229
   9 C :   -0.132489    0.008664
  10 S :   -0.038870   -0.000133
  11 S :   -0.050176   -0.000229
  12 S :   -0.083585   -0.000415
  13 S :    0.007547   -0.000039
  14 C :   -0.338064    0.000266
  15 C :   -0.338092    0.000317
  16 C :   -0.339223    0.000295
  17 C :   -0.346362    0.000461
  18 C :   -0.082902    0.000137
  19 H :    0.146412   -0.000113
  20 H :    0.100545    0.000022
  21 H :    0.044388    0.000039
  22 H :    0.078321    0.000017
  23 H :    0.103112    0.000020
  24 H :    0.147302   -0.000092
  25 C :   -0.063352    0.000124
  26 H :    0.087492    0.000010
  27 H :    0.138645   -0.000201
  28 H :    0.072672   -0.000004
  29 H :    0.036461    0.000049
  30 H :    0.146594   -0.000049
  31 H :    0.105795    0.000026
Sum of atomic charges         :   -2.0000000

LOEWDIN ATOMIC CHARGES AND SPIN POPULATIONS
-------------------------------------------
   0 V :   -0.242849    1.153201
   1 S :    0.097446   -0.015102
   2 S :    0.088085   -0.016022
   3 S :    0.081748   -0.017553
   4 S :    0.088087   -0.016676
   5 O :   -0.350749   -0.124189
   6 C :   -0.551840    0.010216
   7 C :   -0.553990    0.009726
   8 C :   -0.542983    0.010268
   9 C :   -0.558848    0.009730
  10 S :    0.346927   -0.001002
  11 S :    0.327108   -0.001066
  12 S :    0.270129   -0.001176
  13 S :    0.425052   -0.000924
  14 C :   -0.284477    0.000162
  15 C :   -0.238889    0.000244
  16 C :   -0.303431    0.000159
  17 C :   -0.375566    0.000148
  18 C :   -0.184861   -0.000037
  19 H :    0.065422   -0.000031
  20 H :    0.047545    0.000004
  21 H :    0.046820    0.000017
  22 H :    0.053369    0.000012
  23 H :    0.047157    0.000006
  24 H :    0.066357   -0.000024
  25 C :   -0.188202   -0.000051
  26 H :    0.051248   -0.000011
  27 H :    0.060389   -0.000074
  28 H :    0.051956    0.000010
  29 H :    0.047595    0.000022
  30 H :    0.067592   -0.000005
  31 H :    0.046651    0.000016

  Mayer bond orders larger than 0.100000
B(  0-V ,  1-S ) :   0.7816 B(  0-V ,  2-S ) :   0.7912 B(  0-V ,  3-S ) :   0.7950
B(  0-V ,  4-S ) :   0.7886 B(  0-V ,  5-O ) :   2.1083 B(  1-S ,  8-C ) :   1.1475
B(  2-S ,  6-C ) :   1.1356 B(  3-S ,  9-C ) :   1.1264 B(  4-S ,  7-C ) :   1.1389
B(  6-C ,  7-C ) :   1.5176 B(  6-C , 10-S ) :   0.9487 B(  7-C , 11-S ) :   0.9588
B(  8-C ,  9-C ) :   1.5121 B(  8-C , 13-S ) :   0.9150 B(  9-C , 12-S ) :   0.9976
B( 10-S , 16-C ) :   1.0200 B( 11-S , 14-C ) :   0.9918 B( 12-S , 15-C ) :   0.9236
B( 13-S , 17-C ) :   1.1541 B( 14-C , 18-C ) :   0.8810 B( 14-C , 23-H ) :   0.9693
B( 14-C , 24-H ) :   0.9764 B( 15-C , 25-C ) :   0.8979 B( 15-C , 30-H ) :   0.9771
B( 15-C , 31-H ) :   0.9626 B( 16-C , 18-C ) :   0.8745 B( 16-C , 19-H ) :   0.9739
B( 16-C , 20-H ) :   0.9705 B( 17-C , 25-C ) :   0.8396 B( 17-C , 26-H ) :   0.9640
B( 17-C , 27-H ) :   0.9589 B( 18-C , 21-H ) :   0.9527 B( 18-C , 22-H ) :   0.9737
B( 25-C , 28-H ) :   0.9711 B( 25-C , 29-H ) :   0.9511

FINAL SINGLE POINT ENERGY     -4592.682543044347

DIPOLE MOMENT
-------------
                                X             Y             Z
Electronic contribution:     -9.73954     -24.85812      -1.40917
Nuclear contribution   :     10.98420      27.60792       1.56309
                        -----------------------------------------
Total Dipole Moment    :      1.24466       2.74980       0.15392
                        -----------------------------------------
Magnitude (a.u.)       :      3.02229
Magnitude (Debye)      :      7.68206

Rotational constants in cm-1:     0.012761     0.002548     0.002431
Rotational constants in MHz :   382.576005    76.388036    72.881993

                             ****ORCA TERMINATED NORMALLY****
TOTAL RUN TIME: 0 days 0 hours 27 minutes 44 seconds 415 msec
