                         Program Version 5.0.4 -  RELEASE  -
|  1> ! nofrozencore ReducedPop printbasis
|  2> ! B3LYP TZVP
|  3>
|  4> %basis
|  5> newgto V "CP(PPP)" end
|  6> end
|  7>
|  8> %pal
|  9> nprocs 4
| 10> end
| 11>
| 12> % sym SymThresh 1e-2 end
| 13> * xyz -2 2
| 14> V 0.6463576253690693 -0.9090192998126648 -0.006384593358247525
| 15> S -1.1909021623259894 -1.3110045288241496 1.5758573991322475
| 16> S -1.0473947177189462 -1.171017140177582 -1.7591720989655235
| 17> S 1.459608987526124 0.5792381817863194 1.7509847574136224
| 18> S 1.6214539326682293 0.6931305240679783 -1.5804913592889345
| 19> O 1.5640830986894174 -2.21553921643987 -0.011103004148124164
| 20> C -0.3050336990829424 -0.4305071856549988 -3.1826657749654124
| 21> C 0.8092786256950165 0.34470259834929157 -3.111843117814173
| 22> C -0.5547522056782526 -0.654991581140864 3.097794180714837
| 23> C 0.5628925502362455 0.11353449680040195 3.193282208367719
| 24> S -1.1514862821940235 -0.7814145376303323 -4.735400495282839
| 25> S 1.5367438655609857 1.1375921356380851 -4.561676520560402
| 26> S 1.0831859632153744 0.8471197319238041 4.766102937600543
| 27> S -1.4976379218971843 -1.2174995785167477 4.52889175283579
| 28> C 0.27974123457039557 2.340228287231733 -5.052411339522492
| 29> C -0.07265242993472161 1.7999435608534193 5.1743132589853795
| 30> C -1.862572662037132 0.9010861032942761 -5.208214494224182
| 31> C -2.415328363017045 0.6271822599635651 5.129413666013924
| 32> C -0.8792289407081478 1.8392751169787305 -5.91114361104796
| 33> H -2.2492936893687707 1.3455308626827776 -4.28902343528069
| 34> H -2.7094914172081856 0.6819739592592535 -5.865173526752763
| 35> H -1.430840264807225 2.727547879916755 -6.261806578809186
| 36> H -0.480662254428136 1.3397186720361005 -6.800825367653686
| 37> H 0.8362217504240789 3.094817005537652 -5.618331060466768
| 38> H -0.09152837995290171 2.8210298880941855 -4.144191003493384
| 39> C -1.342426973345507 1.4119962669649788 5.939839809753911
| 40> H -3.3295313071581845 0.3988228658045755 5.680968715956368
| 41> H -2.6448101372338972 1.1062474622936949 4.171475122890891
| 42> H -1.0671825677118343 0.8077444309594852 6.8146451430517585
| 43> H -1.7193308952992736 2.4184193123516398 6.325502335430841
| 44> H -0.3753642883536813 2.436272098402575 4.327695599067343
| 45> H 0.4614323123611464 2.4772341389899672 5.857319302929514
| 46> *
| 47>
| 48> % eprnmr
| 49> gtensor true
| 50> Nuclei = all H {aiso,adip,aorb,fgrad,rho}
| 51> Nuclei = all V {aiso,adip,aorb,fgrad,rho}
| 52> end
| 53>
| 54>                          ****END OF INPUT****

CARTESIAN COORDINATES (ANGSTROEM)
---------------------------------
  V      0.647040   -0.909986   -0.006473
  S     -1.190220   -1.311971    1.575769
  S     -1.046712   -1.171984   -1.759261
  S      1.460292    0.578271    1.750896
  S      1.622137    0.692164   -1.580580
  O      1.564766   -2.216506   -0.011191
  C     -0.304351   -0.431474   -3.182754
  C      0.809961    0.343736   -3.111932
  C     -0.554070   -0.655959    3.097706
  C      0.563575    0.112568    3.193194
  S     -1.150804   -0.782381   -4.735489
  S      1.537427    1.136625   -4.561765
  S      1.083869    0.846153    4.766015
  S     -1.496955   -1.218467    4.528803
  C      0.280424    2.339261   -5.052500
  C     -0.071970    1.798977    5.174225
  C     -1.861890    0.900119   -5.208303
  C     -2.414646    0.626215    5.129325
  C     -0.878546    1.838308   -5.911232
  H     -2.248611    1.344564   -4.289112
  H     -2.708809    0.681007   -5.865262
  H     -1.430158    2.726581   -6.261895
  H     -0.479980    1.338752   -6.800914
  H      0.836904    3.093850   -5.618419
  H     -0.090846    2.820063   -4.144279
  C     -1.341744    1.411029    5.939751
  H     -3.328849    0.397856    5.680880
  H     -2.644127    1.105281    4.171387
  H     -1.066500    0.806777    6.814557
  H     -1.718648    2.417452    6.325414
  H     -0.374682    2.435305    4.327607
  H      0.462115    2.476267    5.857231

 Total Charge           Charge          ....   -2
 Multiplicity           Mult            ....    2
 Number of Electrons    NEL             ....  233
 Basis Dimension        Dim             ....  517

ORBITAL ENERGIES
----------------
                 SPIN UP ORBITALS
  NO   OCC          E(Eh)            E(eV)
   0   1.0000    -196.640896     -5350.8708
   1   1.0000     -88.679219     -2413.0842
   2   1.0000     -88.677519     -2413.0380
   3   1.0000     -88.676206     -2413.0022
   4   1.0000     -88.668020     -2412.7795
   5   1.0000     -88.615264     -2411.3439
   6   1.0000     -88.612949     -2411.2809
   7   1.0000     -88.612201     -2411.2606
   8   1.0000     -88.611215     -2411.2337
   9   1.0000     -22.016697      -599.1048
  10   1.0000     -18.857984      -513.1518
  11   1.0000     -18.523521      -504.0506
  12   1.0000     -18.517751      -503.8936
  13   1.0000     -18.517709      -503.8925
  14   1.0000     -10.024797      -272.7886
  15   1.0000     -10.017253      -272.5833
  16   1.0000     -10.014138      -272.4986
  17   1.0000     -10.009290      -272.3666
  18   1.0000     -10.005076      -272.2520
  19   1.0000     -10.003179      -272.2003
  20   1.0000      -9.992862      -271.9196
  21   1.0000      -9.992320      -271.9049
  22   1.0000      -9.991604      -271.8854
  23   1.0000      -9.991184      -271.8739
  24   1.0000      -7.730589      -210.3600
  25   1.0000      -7.730496      -210.3575
  26   1.0000      -7.729844      -210.3397
  27   1.0000      -7.729662      -210.3348
  28   1.0000      -7.669803      -208.7059
  29   1.0000      -7.667382      -208.6401
  30   1.0000      -7.666617      -208.6193
  31   1.0000      -7.665507      -208.5891
  32   1.0000      -5.695893      -154.9931
  33   1.0000      -5.695679      -154.9873
  34   1.0000      -5.695404      -154.9798
  35   1.0000      -5.694439      -154.9536
  36   1.0000      -5.692023      -154.8878
  37   1.0000      -5.691756      -154.8806
  38   1.0000      -5.691678      -154.8784
  39   1.0000      -5.689844      -154.8285
  40   1.0000      -5.685307      -154.7051
  41   1.0000      -5.685281      -154.7044
  42   1.0000      -5.684375      -154.6797
  43   1.0000      -5.684313      -154.6780
  44   1.0000      -5.634595      -153.3251
  45   1.0000      -5.632221      -153.2605
  46   1.0000      -5.631455      -153.2397
  47   1.0000      -5.630384      -153.2105
  48   1.0000      -5.628182      -153.1506
  49   1.0000      -5.627900      -153.1429
  50   1.0000      -5.625825      -153.0865
  51   1.0000      -5.625386      -153.0745
  52   1.0000      -5.625073      -153.0660
  53   1.0000      -5.624577      -153.0525
  54   1.0000      -5.624000      -153.0368
  55   1.0000      -5.623402      -153.0205
  56   1.0000      -2.410389       -65.5900
  57   1.0000      -1.451751       -39.5041
  58   1.0000      -1.440194       -39.1897
  59   1.0000      -1.439077       -39.1593
  60   1.0000      -0.672383       -18.2965
  61   1.0000      -0.644556       -17.5393
  62   1.0000      -0.619005       -16.8440
  63   1.0000      -0.594113       -16.1666
  64   1.0000      -0.592846       -16.1322
  65   1.0000      -0.576876       -15.6976
  66   1.0000      -0.576235       -15.6801
  67   1.0000      -0.497310       -13.5325
  68   1.0000      -0.491422       -13.3723
  69   1.0000      -0.486923       -13.2498
  70   1.0000      -0.475724       -12.9451
  71   1.0000      -0.426880       -11.6160
  72   1.0000      -0.421923       -11.4811
  73   1.0000      -0.411525       -11.1982
  74   1.0000      -0.405221       -11.0266
  75   1.0000      -0.375672       -10.2225
  76   1.0000      -0.371214       -10.1012
  77   1.0000      -0.305320        -8.3082
  78   1.0000      -0.293399        -7.9838
  79   1.0000      -0.278038        -7.5658
  80   1.0000      -0.277253        -7.5444
  81   1.0000      -0.258871        -7.0442
  82   1.0000      -0.253003        -6.8846
  83   1.0000      -0.242677        -6.6036
  84   1.0000      -0.238607        -6.4928
  85   1.0000      -0.204307        -5.5595
  86   1.0000      -0.195447        -5.3184
  87   1.0000      -0.192728        -5.2444
  88   1.0000      -0.191385        -5.2079
  89   1.0000      -0.185575        -5.0498
  90   1.0000      -0.184999        -5.0341
  91   1.0000      -0.179927        -4.8961
  92   1.0000      -0.150049        -4.0830
  93   1.0000      -0.148741        -4.0474
  94   1.0000      -0.143121        -3.8945
  95   1.0000      -0.141521        -3.8510
  96   1.0000      -0.136448        -3.7129
  97   1.0000      -0.097650        -2.6572
  98   1.0000      -0.094722        -2.5775
  99   1.0000      -0.088820        -2.4169
 100   1.0000      -0.082221        -2.2373
 101   1.0000      -0.080291        -2.1848
 102   1.0000      -0.079770        -2.1707
 103   1.0000      -0.069402        -1.8885
 104   1.0000      -0.050138        -1.3643
 105   1.0000      -0.038878        -1.0579
 106   1.0000      -0.037190        -1.0120
 107   1.0000      -0.034444        -0.9373
 108   1.0000      -0.031172        -0.8482
 109   1.0000      -0.013677        -0.3722
 110   1.0000      -0.004789        -0.1303
 111   1.0000      -0.003257        -0.0886
 112   1.0000       0.005946         0.1618
 113   1.0000       0.010351         0.2817
 114   1.0000       0.015586         0.4241
 115   1.0000       0.032835         0.8935
 116   1.0000       0.058920         1.6033
 117   0.0000       0.162207         4.4139
 118   0.0000       0.190941         5.1958
 119   0.0000       0.195677         5.3246
 120   0.0000       0.196265         5.3406
 121   0.0000       0.209905         5.7118

                 SPIN DOWN ORBITALS
  NO   OCC          E(Eh)            E(eV)
   0   1.0000    -196.641037     -5350.8746
   1   1.0000     -88.679233     -2413.0846
   2   1.0000     -88.677532     -2413.0383
   3   1.0000     -88.676219     -2413.0026
   4   1.0000     -88.668032     -2412.7798
   5   1.0000     -88.615415     -2411.3480
   6   1.0000     -88.613107     -2411.2852
   7   1.0000     -88.612363     -2411.2650
   8   1.0000     -88.611383     -2411.2383
   9   1.0000     -22.002029      -598.7056
  10   1.0000     -18.861560      -513.2491
  11   1.0000     -18.518391      -503.9110
  12   1.0000     -18.502257      -503.4720
  13   1.0000     -18.501577      -503.4535
  14   1.0000     -10.024791      -272.7884
  15   1.0000     -10.017250      -272.5832
  16   1.0000     -10.014134      -272.4985
  17   1.0000     -10.009290      -272.3666
  18   1.0000     -10.005076      -272.2520
  19   1.0000     -10.003175      -272.2002
  20   1.0000      -9.992616      -271.9129
  21   1.0000      -9.992065      -271.8979
  22   1.0000      -9.991352      -271.8785
  23   1.0000      -9.990923      -271.8668
  24   1.0000      -7.730603      -210.3604
  25   1.0000      -7.730510      -210.3579
  26   1.0000      -7.729859      -210.3402
  27   1.0000      -7.729675      -210.3352
  28   1.0000      -7.669943      -208.7097
  29   1.0000      -7.667529      -208.6441
  30   1.0000      -7.666768      -208.6234
  31   1.0000      -7.665664      -208.5933
  32   1.0000      -5.695909      -154.9936
  33   1.0000      -5.695696      -154.9878
  34   1.0000      -5.695419      -154.9802
  35   1.0000      -5.694460      -154.9541
  36   1.0000      -5.692043      -154.8884
  37   1.0000      -5.691776      -154.8811
  38   1.0000      -5.691703      -154.8791
  39   1.0000      -5.689859      -154.8289
  40   1.0000      -5.685324      -154.7055
  41   1.0000      -5.685297      -154.7048
  42   1.0000      -5.684395      -154.6802
  43   1.0000      -5.684325      -154.6783
  44   1.0000      -5.634762      -153.3297
  45   1.0000      -5.632392      -153.2652
  46   1.0000      -5.631628      -153.2444
  47   1.0000      -5.630560      -153.2153
  48   1.0000      -5.628539      -153.1603
  49   1.0000      -5.628035      -153.1466
  50   1.0000      -5.626212      -153.0970
  51   1.0000      -5.625519      -153.0782
  52   1.0000      -5.625470      -153.0768
  53   1.0000      -5.624715      -153.0563
  54   1.0000      -5.624415      -153.0481
  55   1.0000      -5.623543      -153.0244
  56   1.0000      -2.366208       -64.3878
  57   1.0000      -1.432920       -38.9917
  58   1.0000      -1.378807       -37.5192
  59   1.0000      -1.378082       -37.4995
  60   1.0000      -0.672364       -18.2959
  61   1.0000      -0.644507       -17.5379
  62   1.0000      -0.626663       -17.0524
  63   1.0000      -0.593920       -16.1614
  64   1.0000      -0.592613       -16.1258
  65   1.0000      -0.576869       -15.6974
  66   1.0000      -0.576230       -15.6800
  67   1.0000      -0.497299       -13.5322
  68   1.0000      -0.491446       -13.3729
  69   1.0000      -0.486944       -13.2504
  70   1.0000      -0.475770       -12.9464
  71   1.0000      -0.427103       -11.6221
  72   1.0000      -0.422211       -11.4890
  73   1.0000      -0.411557       -11.1990
  74   1.0000      -0.405331       -11.0296
  75   1.0000      -0.375644       -10.2218
  76   1.0000      -0.371228       -10.1016
  77   1.0000      -0.305309        -8.3079
  78   1.0000      -0.293382        -7.9833
  79   1.0000      -0.278014        -7.5651
  80   1.0000      -0.277226        -7.5437
  81   1.0000      -0.258734        -7.0405
  82   1.0000      -0.252988        -6.8841
  83   1.0000      -0.242535        -6.5997
  84   1.0000      -0.238506        -6.4901
  85   1.0000      -0.204181        -5.5560
  86   1.0000      -0.195018        -5.3067
  87   1.0000      -0.192644        -5.2421
  88   1.0000      -0.191280        -5.2050
  89   1.0000      -0.185537        -5.0487
  90   1.0000      -0.184950        -5.0327
  91   1.0000      -0.177927        -4.8416
  92   1.0000      -0.149380        -4.0648
  93   1.0000      -0.148398        -4.0381
  94   1.0000      -0.142878        -3.8879
  95   1.0000      -0.141263        -3.8440
  96   1.0000      -0.136257        -3.7077
  97   1.0000      -0.096146        -2.6163
  98   1.0000      -0.094235        -2.5643
  99   1.0000      -0.089058        -2.4234
 100   1.0000      -0.083263        -2.2657
 101   1.0000      -0.081156        -2.2084
 102   1.0000      -0.079382        -2.1601
 103   1.0000      -0.070549        -1.9197
 104   1.0000      -0.045993        -1.2515
 105   1.0000      -0.038607        -1.0506
 106   1.0000      -0.036651        -0.9973
 107   1.0000      -0.033640        -0.9154
 108   1.0000      -0.031095        -0.8461
 109   1.0000      -0.012771        -0.3475
 110   1.0000      -0.006084        -0.1656
 111   1.0000      -0.002382        -0.0648
 112   1.0000       0.006888         0.1874
 113   1.0000       0.011257         0.3063
 114   1.0000       0.033085         0.9003
 115   1.0000       0.058130         1.5818
 116   0.0000       0.162258         4.4153
 117   0.0000       0.184580         5.0227
 118   0.0000       0.191837         5.2202
 119   0.0000       0.195788         5.3277
 120   0.0000       0.196554         5.3485

MULLIKEN ATOMIC CHARGES AND SPIN POPULATIONS
--------------------------------------------
   0 V :    0.446971    1.199226
   1 S :   -0.253041   -0.025767
   2 S :   -0.251123   -0.024587
   3 S :   -0.251919   -0.022522
   4 S :   -0.255811   -0.023760
   5 O :   -0.505990   -0.138753
   6 C :   -0.120429    0.008522
   7 C :   -0.111937    0.009192
   8 C :   -0.134710    0.008653
   9 C :   -0.093045    0.009272
  10 S :   -0.051599   -0.000207
  11 S :   -0.037203   -0.000164
  12 S :    0.022530    0.000031
  13 S :   -0.092620   -0.000524
  14 C :   -0.339188    0.000316
  15 C :   -0.345344    0.000494
  16 C :   -0.336745    0.000244
  17 C :   -0.340297    0.000386
  18 C :   -0.084014    0.000135
  19 H :    0.146998   -0.000088
  20 H :    0.103507    0.000019
  21 H :    0.044488    0.000038
  22 H :    0.078467    0.000016
  23 H :    0.100076    0.000023
  24 H :    0.146564   -0.000117
  25 C :   -0.055679    0.000111
  26 H :    0.105421    0.000025
  27 H :    0.146375   -0.000043
  28 H :    0.070090   -0.000010
  29 H :    0.032572    0.000063
  30 H :    0.133428   -0.000224
  31 H :    0.083204   -0.000004
Sum of atomic charges         :   -2.0000000

LOEWDIN ATOMIC CHARGES AND SPIN POPULATIONS
-------------------------------------------
   0 V :   -0.242724    1.153234
   1 S :    0.081121   -0.017857
   2 S :    0.088636   -0.016845
   3 S :    0.100701   -0.014717
   4 S :    0.087906   -0.015952
   5 O :   -0.350561   -0.124204
   6 C :   -0.554798    0.009707
   7 C :   -0.551051    0.010223
   8 C :   -0.558936    0.009645
   9 C :   -0.541554    0.010361
  10 S :    0.324953   -0.001053
  11 S :    0.349262   -0.001019
  12 S :    0.449722   -0.000873
  13 S :    0.254847   -0.001254
  14 C :   -0.305579    0.000167
  15 C :   -0.396452    0.000142
  16 C :   -0.282219    0.000152
  17 C :   -0.229806    0.000307
  18 C :   -0.184916   -0.000037
  19 H :    0.066316   -0.000022
  20 H :    0.047148    0.000005
  21 H :    0.046869    0.000017
  22 H :    0.053395    0.000012
  23 H :    0.047601    0.000005
  24 H :    0.065467   -0.000032
  25 C :   -0.190008   -0.000056
  26 H :    0.046680    0.000019
  27 H :    0.067796   -0.000003
  28 H :    0.051323    0.000010
  29 H :    0.047764    0.000027
  30 H :    0.057975   -0.000088
  31 H :    0.053123   -0.000021

  Mayer bond orders larger than 0.100000
B(  0-V ,  1-S ) :   0.7943 B(  0-V ,  2-S ) :   0.7916 B(  0-V ,  3-S ) :   0.7813
B(  0-V ,  4-S ) :   0.7891 B(  0-V ,  5-O ) :   2.1084 B(  1-S ,  8-C ) :   1.1259
B(  2-S ,  6-C ) :   1.1378 B(  3-S ,  9-C ) :   1.1484 B(  4-S ,  7-C ) :   1.1364
B(  6-C ,  7-C ) :   1.5173 B(  6-C , 10-S ) :   0.9604 B(  7-C , 11-S ) :   0.9476
B(  8-C ,  9-C ) :   1.5077 B(  8-C , 13-S ) :   1.0104 B(  9-C , 12-S ) :   0.9062
B( 10-S , 16-C ) :   0.9885 B( 11-S , 14-C ) :   1.0230 B( 12-S , 15-C ) :   1.2039
B( 13-S , 17-C ) :   0.9056 B( 14-C , 18-C ) :   0.8739 B( 14-C , 23-H ) :   0.9708
B( 14-C , 24-H ) :   0.9735 B( 15-C , 25-C ) :   0.8259 B( 15-C , 30-H ) :   0.9536
B( 15-C , 31-H ) :   0.9575 B( 16-C , 18-C ) :   0.8818 B( 16-C , 19-H ) :   0.9765
B( 16-C , 20-H ) :   0.9692 B( 17-C , 25-C ) :   0.9022 B( 17-C , 26-H ) :   0.9607
B( 17-C , 27-H ) :   0.9757 B( 18-C , 21-H ) :   0.9526 B( 18-C , 22-H ) :   0.9738
B( 25-C , 28-H ) :   0.9699 B( 25-C , 29-H ) :   0.9495

FINAL SINGLE POINT ENERGY     -4592.657366528180

DIPOLE MOMENT
-------------
                                X             Y             Z
Electronic contribution:     15.31608     -21.95594      -0.29133
Nuclear contribution   :    -16.86987      24.51589       0.21522
                        -----------------------------------------
Total Dipole Moment    :     -1.55379       2.55995      -0.07612
                        -----------------------------------------
Magnitude (a.u.)       :      2.99557
Magnitude (Debye)      :      7.61412

Rotational constants in cm-1:     0.012750     0.002548     0.002431
Rotational constants in MHz :   382.248631    76.376375    72.879508

                             ****ORCA TERMINATED NORMALLY****
TOTAL RUN TIME: 0 days 0 hours 42 minutes 50 seconds 943 msec
