                         Program Version 5.0.4 -  RELEASE  -
|  1> ! nofrozencore ReducedPop printbasis
|  2> ! B3LYP TZVP
|  3>
|  4> %basis
|  5> newgto V "CP(PPP)" end
|  6> end
|  7>
|  8> %pal
|  9> nprocs 8
| 10> end
| 11>
| 12> % sym SymThresh 1e-2 end
| 13> * xyz -2 2
| 14> V -0.11469255561007426 0.3713124457148639 -1.0456233283792382
| 15> S -2.2383607468726057 -0.6578910007342712 -0.38498929102349294
| 16> S -0.7226579592054366 2.1977828556596166 0.475060139051566
| 17> S 0.6551876020769803 -1.9515488435925032 -1.1499561825962672
| 18> S 2.1656780892856013 0.9175764570347541 -0.3177166717042331
| 19> O -0.2842140900181279 0.8995492551458523 -2.543137572175306
| 20> C 0.7954502557808769 3.0196095109791203 0.7843726404226332
| 21> C 2.0025140945489306 2.4836643910213114 0.45408866663198855
| 22> C -2.045883269214537 -2.3574881815824824 -0.8341071697281837
| 23> C -0.8397726435924296 -2.8970444127753514 -1.1531820277041702
| 24> S 0.6053996817872062 4.6441609286810275 1.5215881172280243
| 25> S 3.5626827844367623 3.329543543079203 0.7175096816716174
| 26> S -0.6328777467003709 -4.640066816665206 -1.5722248434593853
| 27> S -3.5673310221065937 -3.3278635390686557 -0.7972306787306689
| 28> C 3.712019216410933 3.2573123979972656 2.7568868986244732
| 29> C -1.0041806342229447 -5.49254765032734 0.013079753102774382
| 30> C 1.3383072316393674 4.31531537781268 3.40001669884799
| 31> C -3.295628708730698 -4.468841411485637 0.6175483707565662
| 32> C 2.912148819731837 4.436281871747619 3.4381824071692155
| 33> H 0.9635755903436826 3.326832956113865 3.673334310006306
| 34> H 0.8616921703031325 5.071664600573683 4.0290096156398105
| 35> H 3.299721414514755 4.670164745345885 4.486809677709447
| 36> H 3.1451676516603184 5.344592180691795 2.804910471632497
| 37> H 4.782518749092324 3.3218112003936406 2.9681314139292683
| 38> H 3.347737560831142 2.263140166460091 3.023828294954155
| 39> C -2.478828640108197 -5.724864019737251 0.3287237632088525
| 40> H -4.3016952795467125 -4.757162079308505 0.9384679882898082
| 41> H -2.844653543647551 -3.8847597547437833 1.4228412624493463
| 42> H -2.9434490017721022 -6.279436450208926 -0.49384473999865663
| 43> H -2.5316696293352865 -6.369692655564897 1.2209638852013345
| 44> H -0.5187273238668367 -4.922769697927712 0.8085144067366126
| 45> H -0.49396130468800453 -6.457931615562565 -0.0642528919614509
| 46> *
| 47>
| 48> % eprnmr
| 49> gtensor true
| 50> Nuclei = all H {aiso,adip,aorb,fgrad,rho}
| 51> Nuclei = all V {aiso,adip,aorb,fgrad,rho}
| 52> end
| 53>
| 54>                          ****END OF INPUT****

CARTESIAN COORDINATES (ANGSTROEM)
---------------------------------
  V     -0.114783    0.371779   -1.046711
  S     -2.238451   -0.657425   -0.386077
  S     -0.722749    2.198249    0.473973
  S      0.655097   -1.951083   -1.151044
  S      2.165587    0.918043   -0.318804
  O     -0.284305    0.900016   -2.544225
  C      0.795360    3.020076    0.783285
  C      2.002423    2.484131    0.453001
  C     -2.045974   -2.357022   -0.835195
  C     -0.839863   -2.896578   -1.154270
  S      0.605309    4.644627    1.520500
  S      3.562592    3.330010    0.716422
  S     -0.632968   -4.639601   -1.573312
  S     -3.567422   -3.327397   -0.798318
  C      3.711928    3.257779    2.755799
  C     -1.004271   -5.492081    0.011992
  C      1.338217    4.315782    3.398929
  C     -3.295719   -4.468375    0.616461
  C      2.912058    4.436748    3.437095
  H      0.963485    3.327299    3.672247
  H      0.861601    5.072131    4.027922
  H      3.299631    4.670631    4.485722
  H      3.145077    5.345058    2.803823
  H      4.782428    3.322277    2.967044
  H      3.347647    2.263606    3.022741
  C     -2.478919   -5.724398    0.327636
  H     -4.301786   -4.756696    0.937380
  H     -2.844744   -3.884294    1.421754
  H     -2.943540   -6.278970   -0.494932
  H     -2.531760   -6.369226    1.219876
  H     -0.518818   -4.922303    0.807427
  H     -0.494052   -6.457465   -0.065341

 Total Charge           Charge          ....   -2
 Multiplicity           Mult            ....    2
 Number of Electrons    NEL             ....  233
 Basis Dimension        Dim             ....  517

ORBITAL ENERGIES
----------------
                 SPIN UP ORBITALS
  NO   OCC          E(Eh)            E(eV)
   0   1.0000    -196.640871     -5350.8701
   1   1.0000     -88.680800     -2413.1272
   2   1.0000     -88.680738     -2413.1256
   3   1.0000     -88.676663     -2413.0147
   4   1.0000     -88.676624     -2413.0136
   5   1.0000     -88.612996     -2411.2822
   6   1.0000     -88.612979     -2411.2817
   7   1.0000     -88.612644     -2411.2726
   8   1.0000     -88.612567     -2411.2705
   9   1.0000     -22.016649      -599.1035
  10   1.0000     -18.858027      -513.1530
  11   1.0000     -18.523485      -504.0496
  12   1.0000     -18.517688      -503.8919
  13   1.0000     -18.517659      -503.8911
  14   1.0000     -10.025910      -272.8189
  15   1.0000     -10.025795      -272.8158
  16   1.0000     -10.020866      -272.6816
  17   1.0000     -10.015221      -272.5280
  18   1.0000     -10.015200      -272.5274
  19   1.0000     -10.004580      -272.2385
  20   1.0000      -9.992552      -271.9112
  21   1.0000      -9.992359      -271.9059
  22   1.0000      -9.991841      -271.8918
  23   1.0000      -9.991645      -271.8865
  24   1.0000      -7.732117      -210.4016
  25   1.0000      -7.732076      -210.4005
  26   1.0000      -7.730451      -210.3563
  27   1.0000      -7.730435      -210.3558
  28   1.0000      -7.667780      -208.6509
  29   1.0000      -7.667747      -208.6500
  30   1.0000      -7.667040      -208.6308
  31   1.0000      -7.666974      -208.6290
  32   1.0000      -5.697588      -155.0392
  33   1.0000      -5.697555      -155.0384
  34   1.0000      -5.695679      -154.9873
  35   1.0000      -5.695669      -154.9870
  36   1.0000      -5.693870      -154.9381
  37   1.0000      -5.693821      -154.9368
  38   1.0000      -5.691786      -154.8814
  39   1.0000      -5.691765      -154.8808
  40   1.0000      -5.686692      -154.7428
  41   1.0000      -5.686651      -154.7416
  42   1.0000      -5.685208      -154.7024
  43   1.0000      -5.685190      -154.7019
  44   1.0000      -5.632472      -153.2673
  45   1.0000      -5.632443      -153.2666
  46   1.0000      -5.631882      -153.2513
  47   1.0000      -5.631824      -153.2497
  48   1.0000      -5.626173      -153.0959
  49   1.0000      -5.626136      -153.0950
  50   1.0000      -5.625866      -153.0876
  51   1.0000      -5.625853      -153.0872
  52   1.0000      -5.625494      -153.0775
  53   1.0000      -5.625420      -153.0755
  54   1.0000      -5.625023      -153.0647
  55   1.0000      -5.624954      -153.0628
  56   1.0000      -2.410363       -65.5893
  57   1.0000      -1.451723       -39.5034
  58   1.0000      -1.440123       -39.1877
  59   1.0000      -1.439061       -39.1588
  60   1.0000      -0.645421       -17.5628
  61   1.0000      -0.622547       -16.9404
  62   1.0000      -0.618890       -16.8408
  63   1.0000      -0.594136       -16.1673
  64   1.0000      -0.589137       -16.0312
  65   1.0000      -0.577744       -15.7212
  66   1.0000      -0.550913       -14.9911
  67   1.0000      -0.491833       -13.3835
  68   1.0000      -0.489435       -13.3182
  69   1.0000      -0.487222       -13.2580
  70   1.0000      -0.477730       -12.9997
  71   1.0000      -0.425780       -11.5861
  72   1.0000      -0.421467       -11.4687
  73   1.0000      -0.411674       -11.2022
  74   1.0000      -0.407021       -11.0756
  75   1.0000      -0.379840       -10.3360
  76   1.0000      -0.374325       -10.1859
  77   1.0000      -0.293996        -8.0000
  78   1.0000      -0.278353        -7.5744
  79   1.0000      -0.277480        -7.5506
  80   1.0000      -0.264674        -7.2021
  81   1.0000      -0.259802        -7.0696
  82   1.0000      -0.249134        -6.7793
  83   1.0000      -0.241881        -6.5819
  84   1.0000      -0.232647        -6.3306
  85   1.0000      -0.195270        -5.3136
  86   1.0000      -0.192768        -5.2455
  87   1.0000      -0.189358        -5.1527
  88   1.0000      -0.188812        -5.1378
  89   1.0000      -0.185146        -5.0381
  90   1.0000      -0.181762        -4.9460
  91   1.0000      -0.177256        -4.8234
  92   1.0000      -0.152085        -4.1384
  93   1.0000      -0.148238        -4.0337
  94   1.0000      -0.145140        -3.9495
  95   1.0000      -0.142823        -3.8864
  96   1.0000      -0.132928        -3.6172
  97   1.0000      -0.099036        -2.6949
  98   1.0000      -0.097691        -2.6583
  99   1.0000      -0.088799        -2.4163
 100   1.0000      -0.083697        -2.2775
 101   1.0000      -0.080929        -2.2022
 102   1.0000      -0.080638        -2.1943
 103   1.0000      -0.068946        -1.8761
 104   1.0000      -0.050567        -1.3760
 105   1.0000      -0.039171        -1.0659
 106   1.0000      -0.038715        -1.0535
 107   1.0000      -0.035787        -0.9738
 108   1.0000      -0.032916        -0.8957
 109   1.0000      -0.013111        -0.3568
 110   1.0000      -0.006697        -0.1822
 111   1.0000      -0.003609        -0.0982
 112   1.0000       0.005540         0.1507
 113   1.0000       0.010855         0.2954
 114   1.0000       0.015470         0.4210
 115   1.0000       0.033407         0.9090
 116   1.0000       0.059392         1.6162
 117   0.0000       0.167708         4.5636
 118   0.0000       0.187452         5.1008
 119   0.0000       0.192658         5.2425
 120   0.0000       0.196056         5.3350
 121   0.0000       0.200574         5.4579

                 SPIN DOWN ORBITALS
  NO   OCC          E(Eh)            E(eV)
   0   1.0000    -196.641013     -5350.8740
   1   1.0000     -88.680814     -2413.1276
   2   1.0000     -88.680753     -2413.1260
   3   1.0000     -88.676676     -2413.0150
   4   1.0000     -88.676637     -2413.0140
   5   1.0000     -88.613157     -2411.2866
   6   1.0000     -88.613139     -2411.2861
   7   1.0000     -88.612804     -2411.2770
   8   1.0000     -88.612728     -2411.2749
   9   1.0000     -22.001954      -598.7036
  10   1.0000     -18.861618      -513.2507
  11   1.0000     -18.518342      -503.9097
  12   1.0000     -18.502185      -503.4700
  13   1.0000     -18.501484      -503.4510
  14   1.0000     -10.025905      -272.8187
  15   1.0000     -10.025791      -272.8156
  16   1.0000     -10.020865      -272.6816
  17   1.0000     -10.015217      -272.5279
  18   1.0000     -10.015196      -272.5273
  19   1.0000     -10.004580      -272.2385
  20   1.0000      -9.992307      -271.9045
  21   1.0000      -9.992104      -271.8990
  22   1.0000      -9.991599      -271.8852
  23   1.0000      -9.991392      -271.8796
  24   1.0000      -7.732132      -210.4020
  25   1.0000      -7.732092      -210.4009
  26   1.0000      -7.730465      -210.3567
  27   1.0000      -7.730449      -210.3562
  28   1.0000      -7.667930      -208.6550
  29   1.0000      -7.667897      -208.6541
  30   1.0000      -7.667189      -208.6348
  31   1.0000      -7.667123      -208.6330
  32   1.0000      -5.697603      -155.0397
  33   1.0000      -5.697570      -155.0388
  34   1.0000      -5.695696      -154.9878
  35   1.0000      -5.695686      -154.9875
  36   1.0000      -5.693895      -154.9388
  37   1.0000      -5.693845      -154.9374
  38   1.0000      -5.691806      -154.8819
  39   1.0000      -5.691785      -154.8813
  40   1.0000      -5.686713      -154.7433
  41   1.0000      -5.686672      -154.7422
  42   1.0000      -5.685225      -154.7028
  43   1.0000      -5.685207      -154.7023
  44   1.0000      -5.632642      -153.2720
  45   1.0000      -5.632613      -153.2712
  46   1.0000      -5.632054      -153.2560
  47   1.0000      -5.631996      -153.2544
  48   1.0000      -5.626560      -153.1065
  49   1.0000      -5.626527      -153.1056
  50   1.0000      -5.626010      -153.0915
  51   1.0000      -5.625993      -153.0911
  52   1.0000      -5.625889      -153.0882
  53   1.0000      -5.625814      -153.0862
  54   1.0000      -5.625158      -153.0683
  55   1.0000      -5.625088      -153.0664
  56   1.0000      -2.366106       -64.3850
  57   1.0000      -1.432845       -38.9897
  58   1.0000      -1.378664       -37.5154
  59   1.0000      -1.377943       -37.4957
  60   1.0000      -0.645372       -17.5615
  61   1.0000      -0.626851       -17.0575
  62   1.0000      -0.622157       -16.9298
  63   1.0000      -0.593938       -16.1619
  64   1.0000      -0.589018       -16.0280
  65   1.0000      -0.577739       -15.7211
  66   1.0000      -0.550896       -14.9906
  67   1.0000      -0.491862       -13.3842
  68   1.0000      -0.489453       -13.3187
  69   1.0000      -0.487239       -13.2584
  70   1.0000      -0.477804       -13.0017
  71   1.0000      -0.426057       -11.5936
  72   1.0000      -0.421771       -11.4770
  73   1.0000      -0.411695       -11.2028
  74   1.0000      -0.407083       -11.0773
  75   1.0000      -0.379813       -10.3352
  76   1.0000      -0.374343       -10.1864
  77   1.0000      -0.293978        -7.9996
  78   1.0000      -0.278334        -7.5738
  79   1.0000      -0.277471        -7.5504
  80   1.0000      -0.264649        -7.2015
  81   1.0000      -0.259654        -7.0655
  82   1.0000      -0.249053        -6.7771
  83   1.0000      -0.241792        -6.5795
  84   1.0000      -0.232494        -6.3265
  85   1.0000      -0.194831        -5.3016
  86   1.0000      -0.192733        -5.2445
  87   1.0000      -0.189006        -5.1431
  88   1.0000      -0.188796        -5.1374
  89   1.0000      -0.185095        -5.0367
  90   1.0000      -0.180293        -4.9060
  91   1.0000      -0.176859        -4.8126
  92   1.0000      -0.151420        -4.1203
  93   1.0000      -0.147968        -4.0264
  94   1.0000      -0.144907        -3.9431
  95   1.0000      -0.142690        -3.8828
  96   1.0000      -0.132767        -3.6128
  97   1.0000      -0.098566        -2.6821
  98   1.0000      -0.096182        -2.6172
  99   1.0000      -0.089048        -2.4231
 100   1.0000      -0.083336        -2.2677
 101   1.0000      -0.082728        -2.2511
 102   1.0000      -0.080764        -2.1977
 103   1.0000      -0.069922        -1.9027
 104   1.0000      -0.046585        -1.2677
 105   1.0000      -0.039019        -1.0618
 106   1.0000      -0.038327        -1.0429
 107   1.0000      -0.034714        -0.9446
 108   1.0000      -0.032886        -0.8949
 109   1.0000      -0.012225        -0.3327
 110   1.0000      -0.007791        -0.2120
 111   1.0000      -0.003146        -0.0856
 112   1.0000       0.006664         0.1813
 113   1.0000       0.011753         0.3198
 114   1.0000       0.033673         0.9163
 115   1.0000       0.058603         1.5947
 116   0.0000       0.167909         4.5690
 117   0.0000       0.184219         5.0129
 118   0.0000       0.188429         5.1274
 119   0.0000       0.193613         5.2685
 120   0.0000       0.196234         5.3398

MULLIKEN ATOMIC CHARGES AND SPIN POPULATIONS
--------------------------------------------
   0 V :    0.444001    1.201076
   1 S :   -0.253747   -0.024329
   2 S :   -0.245374   -0.023976
   3 S :   -0.253798   -0.024303
   4 S :   -0.245851   -0.023934
   5 O :   -0.506417   -0.139098
   6 C :   -0.102122    0.008348
   7 C :   -0.100796    0.008371
   8 C :   -0.116224    0.008973
   9 C :   -0.116844    0.008892
  10 S :   -0.065813   -0.000440
  11 S :   -0.066197   -0.000479
  12 S :   -0.043533   -0.000200
  13 S :   -0.043645   -0.000224
  14 C :   -0.341335    0.000341
  15 C :   -0.338156    0.000301
  16 C :   -0.340849    0.000321
  17 C :   -0.337961    0.000323
  18 C :   -0.120064    0.000034
  19 H :    0.151541   -0.000083
  20 H :    0.103424    0.000027
  21 H :    0.049526    0.000081
  22 H :    0.098533    0.000009
  23 H :    0.103315    0.000028
  24 H :    0.151841   -0.000083
  25 C :   -0.081863    0.000143
  26 H :    0.101688    0.000030
  27 H :    0.146610   -0.000111
  28 H :    0.077556    0.000010
  29 H :    0.044121    0.000032
  30 H :    0.146698   -0.000107
  31 H :    0.101733    0.000028
Sum of atomic charges         :   -2.0000000

LOEWDIN ATOMIC CHARGES AND SPIN POPULATIONS
-------------------------------------------
   0 V :   -0.241430    1.154966
   1 S :    0.087783   -0.016497
   2 S :    0.098601   -0.016350
   3 S :    0.087589   -0.016468
   4 S :    0.098221   -0.016340
   5 O :   -0.351362   -0.124514
   6 C :   -0.568278    0.009575
   7 C :   -0.567853    0.009522
   8 C :   -0.551885    0.009977
   9 C :   -0.552224    0.009987
  10 S :    0.289549   -0.001238
  11 S :    0.288651   -0.001264
  12 S :    0.339279   -0.001046
  13 S :    0.339204   -0.001056
  14 C :   -0.246067    0.000228
  15 C :   -0.296271    0.000168
  16 C :   -0.246838    0.000213
  17 C :   -0.296299    0.000178
  18 C :   -0.192094   -0.000021
  19 H :    0.066653   -0.000010
  20 H :    0.046534    0.000007
  21 H :    0.048718    0.000024
  22 H :    0.064701    0.000012
  23 H :    0.046519    0.000008
  24 H :    0.066780   -0.000010
  25 C :   -0.184856   -0.000041
  26 H :    0.047419    0.000010
  27 H :    0.065854   -0.000029
  28 H :    0.053172    0.000010
  29 H :    0.046911    0.000018
  30 H :    0.065904   -0.000028
  31 H :    0.047411    0.000009

  Mayer bond orders larger than 0.100000
B(  0-V ,  1-S ) :   0.7904 B(  0-V ,  2-S ) :   0.7892 B(  0-V ,  3-S ) :   0.7924
B(  0-V ,  4-S ) :   0.7866 B(  0-V ,  5-O ) :   2.1080 B(  1-S ,  8-C ) :   1.1369
B(  2-S ,  6-C ) :   1.1518 B(  3-S ,  9-C ) :   1.1361 B(  4-S ,  7-C ) :   1.1526
B(  6-C ,  7-C ) :   1.4660 B(  6-C , 10-S ) :   0.9753 B(  7-C , 11-S ) :   0.9758
B(  8-C ,  9-C ) :   1.5201 B(  8-C , 13-S ) :   0.9530 B(  9-C , 12-S ) :   0.9532
B( 10-S , 16-C ) :   0.9560 B( 11-S , 14-C ) :   0.9554 B( 12-S , 15-C ) :   1.0077
B( 13-S , 17-C ) :   1.0081 B( 14-C , 18-C ) :   0.8739 B( 14-C , 23-H ) :   0.9665
B( 14-C , 24-H ) :   0.9751 B( 15-C , 25-C ) :   0.8783 B( 15-C , 30-H ) :   0.9748
B( 15-C , 31-H ) :   0.9700 B( 16-C , 18-C ) :   0.8739 B( 16-C , 19-H ) :   0.9750
B( 16-C , 20-H ) :   0.9666 B( 17-C , 25-C ) :   0.8782 B( 17-C , 26-H ) :   0.9701
B( 17-C , 27-H ) :   0.9748 B( 18-C , 21-H ) :   0.9357 B( 18-C , 22-H ) :   0.9814
B( 25-C , 28-H ) :   0.9733 B( 25-C , 29-H ) :   0.9534

FINAL SINGLE POINT ENERGY     -4592.699283279923

DIPOLE MOMENT
-------------
                                X             Y             Z
Electronic contribution:     -2.88272       8.73507     -25.34450
Nuclear contribution   :      3.12572      -9.85261      28.11788
                        -----------------------------------------
Total Dipole Moment    :      0.24301      -1.11754       2.77338
                        -----------------------------------------
Magnitude (a.u.)       :      2.99993
Magnitude (Debye)      :      7.62522

Rotational constants in cm-1:     0.012562     0.002542     0.002429
Rotational constants in MHz :   376.585155    76.209345    72.815730

                             ****ORCA TERMINATED NORMALLY****
TOTAL RUN TIME: 0 days 0 hours 27 minutes 43 seconds 981 msec
