                         Program Version 5.0.4 -  RELEASE  -
|  1> ! nofrozencore ReducedPop printbasis
|  2> ! B3LYP TZVP
|  3>
|  4> %basis
|  5> newgto V "CP(PPP)" end
|  6> end
|  7>
|  8> %pal
|  9> nprocs 4
| 10> end
| 11>
| 12> % sym SymThresh 1e-2 end
| 13> * xyz -2 2
| 14> V 0.541807537958346 0.9185313808465998 -0.32608145881137407
| 15> S -1.3299397275119262 0.5726194757493968 -1.8693643820518213
| 16> S -1.1658228746442691 1.58623247147812 1.2970351118510972
| 17> S 1.5169905637111314 -0.9919529032614912 -1.508252461142524
| 18> S 1.6981454882807885 0.04706169041986615 1.6512086004352766
| 19> O 1.3149557826535951 2.2344983143717725 -0.7984278847288442
| 20> C -0.11993386767188893 1.33846977923831 2.891764343429113
| 21> C 0.6330384221721805 0.9327692922651402 2.984949323177522
| 22> C -0.47623290617995134 -0.5704763863690341 -3.1091253580826756
| 23> C 0.3605706246610341 -1.030300130950251 -3.0031276090859755
| 24> S -1.2194039017202876 2.2118826957133675 4.248789088418735
| 25> S 1.677772108272261 0.6444129320984773 4.60929073333001
| 26> S 1.2114198139446475 -2.2250951403457 -4.243902024757554
| 27> S -1.6737735674890282 -0.6386438242717855 -4.610145726013502
| 28> C 0.551605757333946 -0.4900842577165761 5.542303373494131
| 29> C 0.02825939320061119 -3.6467578192403014 -4.23342249084528
| 30> C -1.7420198082604474 0.7519415245362717 5.258895916535076
| 31> C -2.250197795029876 -2.3937131118886343 -4.523792765826714
| 32> C -0.6606608848521064 0.19505233454423673 6.210698511679767
| 33> H -1.912107722041239 -0.050905442766820665 4.517070409794492
| 34> H -2.480777542880735 1.1890292681531096 5.953174723013168
| 35> H -1.1338781102164581 -0.5181190260542197 6.916748987322698
| 36> H -0.3252809678158549 0.9734246614267781 6.9072590738265305
| 37> H 1.1711928443485478 -0.7916075844835063 6.404955809066051
| 38> H 0.11676100590672416 -1.1470792970454657 4.76556367820978
| 39> C -1.2550751202261727 -3.440356445663994 -5.060954542743242
| 40> H -3.0826539253781235 -2.4180529473003256 -5.241590626875878
| 41> H -2.3709999600327087 -2.6027004471083703 -3.4498861757880914
| 42> H -1.0012190661169327 -3.220751975166017 -6.104937177075054
| 43> H -1.7776844585208709 -4.412395654158118 -5.156356543274128
| 44> H -0.2917040509248984 -3.7442938919662367 -3.1847198407716073
| 45> H 0.5760020291223891 -4.431650121949501 -4.774520316771714
| 46> *
| 47>
| 48> % eprnmr
| 49> gtensor true
| 50> Nuclei = all H {aiso,adip,aorb,fgrad,rho}
| 51> Nuclei = all V {aiso,adip,aorb,fgrad,rho}
| 52> end
| 53>
| 54>                          ****END OF INPUT****

CARTESIAN COORDINATES (ANGSTROEM)
---------------------------------
  V      0.542381    0.919535   -0.326351
  S     -1.329366    0.573623   -1.869634
  S     -1.165249    1.587236    1.296765
  S      1.517564   -0.990949   -1.508522
  S      1.698719    0.048065    1.650939
  O      1.315530    2.235502   -0.798698
  C     -0.119360    1.339473    2.891495
  C      0.633612    0.933773    2.984680
  C     -0.475659   -0.569473   -3.109395
  C      0.361144   -1.029297   -3.003397
  S     -1.218830    2.212886    4.248519
  S      1.678346    0.645416    4.609021
  S      1.211994   -2.224092   -4.244172
  S     -1.673200   -0.637640   -4.610416
  C      0.552180   -0.489081    5.542034
  C      0.028833   -3.645754   -4.233692
  C     -1.741446    0.752945    5.258626
  C     -2.249624   -2.392710   -4.524063
  C     -0.660087    0.196056    6.210429
  H     -1.911534   -0.049902    4.516801
  H     -2.480204    1.190033    5.952905
  H     -1.133304   -0.517116    6.916479
  H     -0.324707    0.974428    6.906989
  H      1.171767   -0.790604    6.404686
  H      0.117335   -1.146076    4.765294
  C     -1.254501   -3.439353   -5.061224
  H     -3.082080   -2.417050   -5.241860
  H     -2.370426   -2.601697   -3.450156
  H     -1.000645   -3.219749   -6.105207
  H     -1.777111   -4.411392   -5.156626
  H     -0.291130   -3.743290   -3.184990
  H      0.576576   -4.430647   -4.774790

 Total Charge           Charge          ....   -2
 Multiplicity           Mult            ....    2
 Number of Electrons    NEL             ....  233
 Basis Dimension        Dim             ....  517

ORBITAL ENERGIES
----------------
                 SPIN UP ORBITALS
  NO   OCC          E(Eh)            E(eV)
   0   1.0000    -196.636761     -5350.7583
   1   1.0000     -88.677268     -2413.0311
   2   1.0000     -88.677257     -2413.0308
   3   1.0000     -88.676586     -2413.0126
   4   1.0000     -88.676568     -2413.0121
   5   1.0000     -88.608040     -2411.1473
   6   1.0000     -88.607904     -2411.1436
   7   1.0000     -88.607755     -2411.1396
   8   1.0000     -88.607636     -2411.1364
   9   1.0000     -22.013239      -599.0107
  10   1.0000     -18.851329      -512.9707
  11   1.0000     -18.520029      -503.9556
  12   1.0000     -18.514410      -503.8027
  13   1.0000     -18.514283      -503.7993
  14   1.0000     -10.026133      -272.8249
  15   1.0000     -10.026104      -272.8242
  16   1.0000     -10.024049      -272.7682
  17   1.0000     -10.024021      -272.7675
  18   1.0000     -10.004920      -272.2477
  19   1.0000     -10.004615      -272.2394
  20   1.0000      -9.973411      -271.3903
  21   1.0000      -9.961694      -271.0715
  22   1.0000      -9.942480      -270.5486
  23   1.0000      -9.927384      -270.1379
  24   1.0000      -7.730398      -210.3548
  25   1.0000      -7.730385      -210.3545
  26   1.0000      -7.729625      -210.3338
  27   1.0000      -7.729600      -210.3331
  28   1.0000      -7.660847      -208.4622
  29   1.0000      -7.660816      -208.4614
  30   1.0000      -7.660695      -208.4581
  31   1.0000      -7.660690      -208.4580
  32   1.0000      -5.695660      -154.9868
  33   1.0000      -5.695654      -154.9866
  34   1.0000      -5.694887      -154.9658
  35   1.0000      -5.694864      -154.9651
  36   1.0000      -5.692161      -154.8916
  37   1.0000      -5.692147      -154.8912
  38   1.0000      -5.691496      -154.8735
  39   1.0000      -5.691470      -154.8728
  40   1.0000      -5.684701      -154.6886
  41   1.0000      -5.684694      -154.6884
  42   1.0000      -5.683817      -154.6645
  43   1.0000      -5.683798      -154.6640
  44   1.0000      -5.627421      -153.1299
  45   1.0000      -5.627277      -153.1260
  46   1.0000      -5.627055      -153.1199
  47   1.0000      -5.626936      -153.1167
  48   1.0000      -5.619155      -152.9050
  49   1.0000      -5.619090      -152.9032
  50   1.0000      -5.619040      -152.9019
  51   1.0000      -5.618948      -152.8994
  52   1.0000      -5.617665      -152.8644
  53   1.0000      -5.617537      -152.8609
  54   1.0000      -5.617493      -152.8598
  55   1.0000      -5.617339      -152.8556
  56   1.0000      -2.404803       -65.4380
  57   1.0000      -1.446054       -39.3491
  58   1.0000      -1.433946       -39.0197
  59   1.0000      -1.433394       -39.0046
  60   1.0000      -0.661507       -18.0005
  61   1.0000      -0.655779       -17.8447
  62   1.0000      -0.624456       -16.9923
  63   1.0000      -0.621957       -16.9243
  64   1.0000      -0.612708       -16.6726
  65   1.0000      -0.570075       -15.5125
  66   1.0000      -0.568117       -15.4593
  67   1.0000      -0.498014       -13.5517
  68   1.0000      -0.496789       -13.5183
  69   1.0000      -0.458616       -12.4796
  70   1.0000      -0.451024       -12.2730
  71   1.0000      -0.431531       -11.7426
  72   1.0000      -0.421887       -11.4801
  73   1.0000      -0.404866       -11.0170
  74   1.0000      -0.398844       -10.8531
  75   1.0000      -0.388351       -10.5676
  76   1.0000      -0.386782       -10.5249
  77   1.0000      -0.316342        -8.6081
  78   1.0000      -0.313164        -8.5216
  79   1.0000      -0.268401        -7.3036
  80   1.0000      -0.267676        -7.2838
  81   1.0000      -0.266057        -7.2398
  82   1.0000      -0.264679        -7.2023
  83   1.0000      -0.229145        -6.2353
  84   1.0000      -0.224382        -6.1057
  85   1.0000      -0.220474        -5.9994
  86   1.0000      -0.218970        -5.9585
  87   1.0000      -0.209469        -5.7000
  88   1.0000      -0.202508        -5.5105
  89   1.0000      -0.186389        -5.0719
  90   1.0000      -0.181931        -4.9506
  91   1.0000      -0.181015        -4.9257
  92   1.0000      -0.176694        -4.8081
  93   1.0000      -0.174047        -4.7361
  94   1.0000      -0.162838        -4.4311
  95   1.0000      -0.138316        -3.7638
  96   1.0000      -0.133919        -3.6441
  97   1.0000      -0.112782        -3.0690
  98   1.0000      -0.109672        -2.9843
  99   1.0000      -0.089966        -2.4481
 100   1.0000      -0.074627        -2.0307
 101   1.0000      -0.074089        -2.0161
 102   1.0000      -0.062319        -1.6958
 103   1.0000      -0.051865        -1.4113
 104   1.0000      -0.049014        -1.3337
 105   1.0000      -0.033414        -0.9092
 106   1.0000      -0.027162        -0.7391
 107   1.0000      -0.022910        -0.6234
 108   1.0000      -0.018560        -0.5050
 109   1.0000      -0.001606        -0.0437
 110   1.0000       0.001659         0.0452
 111   1.0000       0.006065         0.1650
 112   1.0000       0.012295         0.3346
 113   1.0000       0.015955         0.4342
 114   1.0000       0.019152         0.5211
 115   1.0000       0.026191         0.7127
 116   1.0000       0.035050         0.9538
 117   0.0000       0.147563         4.0154
 118   0.0000       0.167291         4.5522
 119   0.0000       0.192769         5.2455
 120   0.0000       0.195743         5.3264
 121   0.0000       0.210056         5.7159

                 SPIN DOWN ORBITALS
  NO   OCC          E(Eh)            E(eV)
   0   1.0000    -196.636905     -5350.7622
   1   1.0000     -88.677277     -2413.0314
   2   1.0000     -88.677266     -2413.0311
   3   1.0000     -88.676583     -2413.0125
   4   1.0000     -88.676565     -2413.0120
   5   1.0000     -88.608191     -2411.1515
   6   1.0000     -88.608054     -2411.1477
   7   1.0000     -88.607919     -2411.1441
   8   1.0000     -88.607800     -2411.1408
   9   1.0000     -21.999267      -598.6305
  10   1.0000     -18.854780      -513.0647
  11   1.0000     -18.515127      -503.8222
  12   1.0000     -18.499566      -503.3988
  13   1.0000     -18.499041      -503.3845
  14   1.0000     -10.026133      -272.8249
  15   1.0000     -10.026104      -272.8242
  16   1.0000     -10.024048      -272.7682
  17   1.0000     -10.024019      -272.7674
  18   1.0000     -10.004919      -272.2477
  19   1.0000     -10.004614      -272.2394
  20   1.0000      -9.972964      -271.3782
  21   1.0000      -9.961291      -271.0605
  22   1.0000      -9.942092      -270.5381
  23   1.0000      -9.926965      -270.1265
  24   1.0000      -7.730407      -210.3551
  25   1.0000      -7.730395      -210.3547
  26   1.0000      -7.729623      -210.3337
  27   1.0000      -7.729598      -210.3331
  28   1.0000      -7.660979      -208.4658
  29   1.0000      -7.660962      -208.4654
  30   1.0000      -7.660836      -208.4619
  31   1.0000      -7.660827      -208.4617
  32   1.0000      -5.695673      -154.9872
  33   1.0000      -5.695668      -154.9870
  34   1.0000      -5.694878      -154.9655
  35   1.0000      -5.694854      -154.9649
  36   1.0000      -5.692172      -154.8919
  37   1.0000      -5.692158      -154.8915
  38   1.0000      -5.691484      -154.8731
  39   1.0000      -5.691458      -154.8724
  40   1.0000      -5.684713      -154.6889
  41   1.0000      -5.684706      -154.6887
  42   1.0000      -5.683825      -154.6647
  43   1.0000      -5.683806      -154.6642
  44   1.0000      -5.627552      -153.1335
  45   1.0000      -5.627407      -153.1295
  46   1.0000      -5.627230      -153.1247
  47   1.0000      -5.627112      -153.1215
  48   1.0000      -5.619598      -152.9170
  49   1.0000      -5.619533      -152.9153
  50   1.0000      -5.619484      -152.9139
  51   1.0000      -5.619391      -152.9114
  52   1.0000      -5.617775      -152.8674
  53   1.0000      -5.617646      -152.8639
  54   1.0000      -5.617592      -152.8625
  55   1.0000      -5.617437      -152.8582
  56   1.0000      -2.362501       -64.2869
  57   1.0000      -1.428002       -38.8579
  58   1.0000      -1.375381       -37.4260
  59   1.0000      -1.374685       -37.4071
  60   1.0000      -0.660832       -17.9822
  61   1.0000      -0.655056       -17.8250
  62   1.0000      -0.624190       -16.9851
  63   1.0000      -0.621622       -16.9152
  64   1.0000      -0.619938       -16.8694
  65   1.0000      -0.570080       -15.5127
  66   1.0000      -0.568100       -15.4588
  67   1.0000      -0.497918       -13.5490
  68   1.0000      -0.496612       -13.5135
  69   1.0000      -0.458656       -12.4807
  70   1.0000      -0.451059       -12.2739
  71   1.0000      -0.431226       -11.7343
  72   1.0000      -0.421684       -11.4746
  73   1.0000      -0.405167       -11.0251
  74   1.0000      -0.399209       -10.8630
  75   1.0000      -0.388315       -10.5666
  76   1.0000      -0.386720       -10.5232
  77   1.0000      -0.316239        -8.6053
  78   1.0000      -0.313112        -8.5202
  79   1.0000      -0.268399        -7.3035
  80   1.0000      -0.267642        -7.2829
  81   1.0000      -0.266060        -7.2399
  82   1.0000      -0.264614        -7.2005
  83   1.0000      -0.228773        -6.2252
  84   1.0000      -0.223359        -6.0779
  85   1.0000      -0.219411        -5.9705
  86   1.0000      -0.218706        -5.9513
  87   1.0000      -0.208870        -5.6837
  88   1.0000      -0.202032        -5.4976
  89   1.0000      -0.184918        -5.0319
  90   1.0000      -0.181860        -4.9487
  91   1.0000      -0.180880        -4.9220
  92   1.0000      -0.176621        -4.8061
  93   1.0000      -0.173745        -4.7278
  94   1.0000      -0.161884        -4.4051
  95   1.0000      -0.138148        -3.7592
  96   1.0000      -0.133760        -3.6398
  97   1.0000      -0.112535        -3.0622
  98   1.0000      -0.109469        -2.9788
  99   1.0000      -0.088766        -2.4154
 100   1.0000      -0.076123        -2.0714
 101   1.0000      -0.075296        -2.0489
 102   1.0000      -0.059990        -1.6324
 103   1.0000      -0.052058        -1.4166
 104   1.0000      -0.048434        -1.3180
 105   1.0000      -0.032096        -0.8734
 106   1.0000      -0.025720        -0.6999
 107   1.0000      -0.022965        -0.6249
 108   1.0000      -0.018732        -0.5097
 109   1.0000      -0.000455        -0.0124
 110   1.0000       0.003537         0.0962
 111   1.0000       0.006137         0.1670
 112   1.0000       0.010989         0.2990
 113   1.0000       0.016682         0.4540
 114   1.0000       0.026196         0.7128
 115   1.0000       0.034029         0.9260
 116   0.0000       0.140580         3.8254
 117   0.0000       0.164968         4.4890
 118   0.0000       0.184198         5.0123
 119   0.0000       0.194363         5.2889
 120   0.0000       0.197242         5.3672

MULLIKEN ATOMIC CHARGES AND SPIN POPULATIONS
--------------------------------------------
   0 V :    0.493528    1.162041
   1 S :   -0.310154   -0.024188
   2 S :   -0.314590   -0.021642
   3 S :   -0.310031   -0.024230
   4 S :   -0.315240   -0.021435
   5 O :   -0.513060   -0.134301
   6 C :   -0.056318    0.015598
   7 C :   -0.054872    0.015549
   8 C :   -0.054957    0.015226
   9 C :   -0.054488    0.015229
  10 S :   -0.065587    0.001456
  11 S :   -0.065794    0.001488
  12 S :   -0.065043   -0.000063
  13 S :   -0.065244   -0.000070
  14 C :   -0.339247   -0.000271
  15 C :   -0.342384   -0.000064
  16 C :   -0.339269   -0.000270
  17 C :   -0.341680   -0.000047
  18 C :   -0.098218    0.000430
  19 H :    0.151387   -0.000185
  20 H :    0.114489    0.000047
  21 H :    0.048579   -0.000040
  22 H :    0.074933   -0.000106
  23 H :    0.114480    0.000047
  24 H :    0.151293   -0.000181
  25 C :   -0.093020    0.000357
  26 H :    0.112262    0.000018
  27 H :    0.150851   -0.000172
  28 H :    0.075413   -0.000074
  29 H :    0.048391    0.000005
  30 H :    0.151120   -0.000168
  31 H :    0.112473    0.000017
Sum of atomic charges         :   -2.0000000

LOEWDIN ATOMIC CHARGES AND SPIN POPULATIONS
-------------------------------------------
   0 V :   -0.238459    1.115551
   1 S :    0.022425   -0.016719
   2 S :    0.014858   -0.014821
   3 S :    0.022657   -0.016741
   4 S :    0.014095   -0.014706
   5 O :   -0.354174   -0.120144
   6 C :   -0.445634    0.017212
   7 C :   -0.445530    0.017171
   8 C :   -0.458873    0.016201
   9 C :   -0.458993    0.016213
  10 S :    0.290441    0.001019
  11 S :    0.290142    0.001051
  12 S :    0.299374   -0.000502
  13 S :    0.299413   -0.000504
  14 C :   -0.292797    0.000002
  15 C :   -0.290887    0.000056
  16 C :   -0.292940    0.000001
  17 C :   -0.290964    0.000064
  18 C :   -0.198452    0.000013
  19 H :    0.073954   -0.000089
  20 H :    0.059741    0.000011
  21 H :    0.043395   -0.000030
  22 H :    0.048608   -0.000026
  23 H :    0.059731    0.000011
  24 H :    0.074104   -0.000086
  25 C :   -0.195070   -0.000004
  26 H :    0.056321   -0.000015
  27 H :    0.071595   -0.000077
  28 H :    0.049742   -0.000014
  29 H :    0.044093   -0.000007
  30 H :    0.071729   -0.000076
  31 H :    0.056355   -0.000015

  Mayer bond orders larger than 0.100000
B(  0-V ,  1-S ) :   0.7977 B(  0-V ,  2-S ) :   0.8083 B(  0-V ,  3-S ) :   0.7996
B(  0-V ,  4-S ) :   0.8059 B(  0-V ,  5-O ) :   2.1055 B(  1-S ,  8-C ) :   0.9930
B(  2-S ,  6-C ) :   0.9049 B(  2-S , 11-S ) :   0.1055 B(  3-S ,  9-C ) :   0.9931
B(  4-S ,  7-C ) :   0.9042 B(  4-S , 10-S ) :   0.1054 B(  6-C ,  7-C ) :   2.0807
B(  6-C , 10-S ) :   0.8846 B(  7-C , 11-S ) :   0.8850 B(  8-C ,  9-C ) :   1.9035
B(  8-C , 13-S ) :   0.8686 B(  9-C , 12-S ) :   0.8684 B( 10-S , 16-C ) :   1.0476
B( 11-S , 14-C ) :   1.0472 B( 12-S , 15-C ) :   1.0422 B( 13-S , 17-C ) :   1.0423
B( 14-C , 18-C ) :   0.8638 B( 14-C , 23-H ) :   0.9717 B( 14-C , 24-H ) :   0.9736
B( 15-C , 25-C ) :   0.8652 B( 15-C , 30-H ) :   0.9743 B( 15-C , 31-H ) :   0.9720
B( 16-C , 18-C ) :   0.8640 B( 16-C , 19-H ) :   0.9734 B( 16-C , 20-H ) :   0.9716
B( 17-C , 25-C ) :   0.8652 B( 17-C , 26-H ) :   0.9721 B( 17-C , 27-H ) :   0.9742
B( 18-C , 21-H ) :   0.9478 B( 18-C , 22-H ) :   0.9631 B( 25-C , 28-H ) :   0.9653
B( 25-C , 29-H ) :   0.9492

FINAL SINGLE POINT ENERGY     -4591.703513169036

DIPOLE MOMENT
-------------
                                X             Y             Z
Electronic contribution:     12.74031      21.56194      -7.71234
Nuclear contribution   :    -14.24144     -24.10829       8.59225
                        -----------------------------------------
Total Dipole Moment    :     -1.50113      -2.54636       0.87990
                        -----------------------------------------
Magnitude (a.u.)       :      3.08408
Magnitude (Debye)      :      7.83911

Rotational constants in cm-1:     0.012864     0.002547     0.002433
Rotational constants in MHz :   385.657401    76.357139    72.937255

                             ****ORCA TERMINATED NORMALLY****
TOTAL RUN TIME: 0 days 0 hours 43 minutes 36 seconds 542 msec
