                         Program Version 5.0.4 -  RELEASE  -
|  1> ! nofrozencore ReducedPop printbasis
|  2> ! B3LYP TZVP
|  3>
|  4> %basis
|  5> newgto V "CP(PPP)" end
|  6> end
|  7>
|  8> %pal
|  9> nprocs 8
| 10> end
| 11>
| 12> % sym SymThresh 1e-2 end
| 13> * xyz -2 2
| 14> V -0.4699939502504902 0.9310541651923 -0.39598353558072197
| 15> S -1.393729367563644 0.5234927033918265 1.8371327851856987
| 16> S 1.5978476784582365 1.5599396737816404 0.7560916935065833
| 17> S -1.9005926327241158 -0.9584668749158588 -1.0147000988690411
| 18> S 1.079982018550041 0.10523793956822299 -2.1060083306634887
| 19> O -1.1460753333201523 2.262827814974971 -0.9579764614037747
| 20> C 2.868617544231644 1.5458176264121906 -0.31433573553255056
| 21> C 2.5885896785854268 0.7568131074813133 -1.8625427490660378
| 22> C -2.766700380662613 -0.4336938799844974 1.6808994081712152
| 23> C -3.0288236784230973 -1.1988987076193718 0.2087556395529966
| 24> S 4.419776692989227 2.1956783444280075 -0.048925543319402784
| 25> S 3.8967957805417273 0.710466057952063 -2.9516139535881454
| 26> S -4.414961772856156 -2.2081467428349293 0.05336528005466241
| 27> S -3.900611685444941 -0.7026942436942876 2.948844508713758
| 28> C 5.132878230819799 -0.41392080031012674 -2.171433479554193
| 29> C -4.072762229070856 -3.641538032721051 1.162003728748705
| 30> C 5.539034024961194 0.7353827744275953 0.07234540689194342
| 31> C -3.6751130854006293 -2.4745649425102036 3.406489189116199
| 32> C 6.13207236318099 0.21233966719446326 -1.2200889383211562
| 33> H 5.065362515783242 -0.023742656900299013 0.7204522012717902
| 34> H 6.28973126000953 0.9908737419043211 0.8500490859353121
| 35> H 6.848588017438083 -0.5752474329776002 -0.946136788433461
| 36> H 6.616624657911809 1.0488370556395348 -1.7362246023443595
| 37> H 5.591686316393736 -0.9876019799123947 -3.0046028384267633
| 38> H 4.609080964651292 -1.3090194259920782 -1.7902539295168405
| 39> C -4.475665815331726 -3.4946870876020113 2.6178677947455182
| 40> H -3.8526521662724322 -2.5267782397925247 4.496595047827225
| 41> H -2.596703054926182 -2.6848668061448615 3.469380687125805
| 42> H -5.53215030674949 -3.2066467906614187 2.65508205616669
| 43> H -4.314431210183768 -4.471164429920075 3.0971411359488794
| 44> H -3.0332070027222593 -3.9660054996045235 1.0030054216270785
| 45> H -4.529450729754001 -4.518698090634465 0.6673528475869331
| 46> *
| 47>
| 48> % eprnmr
| 49> gtensor true
| 50> Nuclei = all H {aiso,adip,aorb,fgrad,rho}
| 51> Nuclei = all V {aiso,adip,aorb,fgrad,rho}
| 52> end
| 53>
| 54>                          ****END OF INPUT****

CARTESIAN COORDINATES (ANGSTROEM)
---------------------------------
  V     -0.470419    0.932071   -0.396425
  S     -1.394154    0.524509    1.836692
  S      1.597423    1.560956    0.755651
  S     -1.901018   -0.957450   -1.015141
  S      1.079557    0.106254   -2.106449
  O     -1.146500    2.263844   -0.958417
  C      2.868192    1.546834   -0.314777
  C      2.588165    0.757830   -1.862984
  C     -2.767126   -0.432677    1.680458
  C     -3.029249   -1.197882    0.208315
  S      4.419352    2.196695   -0.049367
  S      3.896371    0.711483   -2.952055
  S     -4.415387   -2.207130    0.052924
  S     -3.901037   -0.701678    2.948403
  C      5.132453   -0.412904   -2.171875
  C     -4.073187   -3.640522    1.161563
  C      5.538609    0.736399    0.071904
  C     -3.675538   -2.473548    3.406048
  C      6.131647    0.213356   -1.220530
  H      5.064937   -0.022726    0.720011
  H      6.289306    0.991890    0.849608
  H      6.848163   -0.574231   -0.946578
  H      6.616200    1.049854   -1.736666
  H      5.591261   -0.986585   -3.005044
  H      4.608656   -1.308003   -1.790695
  C     -4.476091   -3.493671    2.617427
  H     -3.853077   -2.525762    4.496154
  H     -2.597128   -2.683850    3.468940
  H     -5.532575   -3.205630    2.654641
  H     -4.314856   -4.470148    3.096700
  H     -3.033632   -3.964989    1.002564
  H     -4.529876   -4.517682    0.666912

 Total Charge           Charge          ....   -2
 Multiplicity           Mult            ....    2
 Number of Electrons    NEL             ....  233
 Basis Dimension        Dim             ....  517

ORBITAL ENERGIES
----------------
                 SPIN UP ORBITALS
  NO   OCC          E(Eh)            E(eV)
   0   1.0000    -196.649203     -5351.0968
   1   1.0000     -88.676090     -2412.9991
   2   1.0000     -88.676066     -2412.9984
   3   1.0000     -88.675082     -2412.9717
   4   1.0000     -88.674901     -2412.9667
   5   1.0000     -88.622346     -2411.5366
   6   1.0000     -88.621950     -2411.5259
   7   1.0000     -88.621383     -2411.5104
   8   1.0000     -88.621315     -2411.5086
   9   1.0000     -22.024849      -599.3266
  10   1.0000     -18.866348      -513.3794
  11   1.0000     -18.531108      -504.2571
  12   1.0000     -18.526286      -504.1259
  13   1.0000     -18.526008      -504.1183
  14   1.0000     -10.010478      -272.3990
  15   1.0000     -10.010375      -272.3962
  16   1.0000     -10.008946      -272.3573
  17   1.0000     -10.008431      -272.3432
  18   1.0000     -10.005138      -272.2536
  19   1.0000     -10.004586      -272.2386
  20   1.0000      -9.997359      -272.0420
  21   1.0000      -9.996877      -272.0289
  22   1.0000      -9.994885      -271.9747
  23   1.0000      -9.992647      -271.9137
  24   1.0000      -7.730250      -210.3508
  25   1.0000      -7.730224      -210.3501
  26   1.0000      -7.729367      -210.3268
  27   1.0000      -7.729178      -210.3216
  28   1.0000      -7.678386      -208.9395
  29   1.0000      -7.677997      -208.9289
  30   1.0000      -7.677092      -208.9043
  31   1.0000      -7.677036      -208.9028
  32   1.0000      -5.695394      -154.9796
  33   1.0000      -5.695375      -154.9790
  34   1.0000      -5.694455      -154.9540
  35   1.0000      -5.694321      -154.9503
  36   1.0000      -5.691284      -154.8677
  37   1.0000      -5.691270      -154.8673
  38   1.0000      -5.690302      -154.8410
  39   1.0000      -5.690158      -154.8371
  40   1.0000      -5.685377      -154.7070
  41   1.0000      -5.685341      -154.7060
  42   1.0000      -5.684617      -154.6863
  43   1.0000      -5.684372      -154.6796
  44   1.0000      -5.642023      -153.5272
  45   1.0000      -5.641786      -153.5208
  46   1.0000      -5.640968      -153.4985
  47   1.0000      -5.640944      -153.4979
  48   1.0000      -5.637774      -153.4116
  49   1.0000      -5.636739      -153.3835
  50   1.0000      -5.636591      -153.3794
  51   1.0000      -5.636299      -153.3715
  52   1.0000      -5.636031      -153.3642
  53   1.0000      -5.635869      -153.3598
  54   1.0000      -5.635391      -153.3468
  55   1.0000      -5.635342      -153.3455
  56   1.0000      -2.419144       -65.8283
  57   1.0000      -1.459806       -39.7233
  58   1.0000      -1.449871       -39.4530
  59   1.0000      -1.447790       -39.3964
  60   1.0000      -0.641271       -17.4499
  61   1.0000      -0.640094       -17.4178
  62   1.0000      -0.626769       -17.0553
  63   1.0000      -0.584909       -15.9162
  64   1.0000      -0.584147       -15.8955
  65   1.0000      -0.583360       -15.8740
  66   1.0000      -0.582780       -15.8582
  67   1.0000      -0.510981       -13.9045
  68   1.0000      -0.507639       -13.8136
  69   1.0000      -0.497463       -13.5367
  70   1.0000      -0.494134       -13.4461
  71   1.0000      -0.441215       -12.0061
  72   1.0000      -0.437826       -11.9139
  73   1.0000      -0.408514       -11.1162
  74   1.0000      -0.406931       -11.0731
  75   1.0000      -0.335745        -9.1361
  76   1.0000      -0.326241        -8.8775
  77   1.0000      -0.280105        -7.6220
  78   1.0000      -0.278267        -7.5720
  79   1.0000      -0.270264        -7.3543
  80   1.0000      -0.269971        -7.3463
  81   1.0000      -0.263371        -7.1667
  82   1.0000      -0.262553        -7.1444
  83   1.0000      -0.236938        -6.4474
  84   1.0000      -0.235869        -6.4183
  85   1.0000      -0.192068        -5.2264
  86   1.0000      -0.188749        -5.1361
  87   1.0000      -0.188155        -5.1199
  88   1.0000      -0.184514        -5.0209
  89   1.0000      -0.182706        -4.9717
  90   1.0000      -0.172789        -4.7018
  91   1.0000      -0.169335        -4.6078
  92   1.0000      -0.167788        -4.5658
  93   1.0000      -0.153911        -4.1881
  94   1.0000      -0.151034        -4.1098
  95   1.0000      -0.134570        -3.6618
  96   1.0000      -0.130699        -3.5565
  97   1.0000      -0.114194        -3.1074
  98   1.0000      -0.106080        -2.8866
  99   1.0000      -0.105134        -2.8608
 100   1.0000      -0.092961        -2.5296
 101   1.0000      -0.089435        -2.4336
 102   1.0000      -0.074707        -2.0329
 103   1.0000      -0.061153        -1.6641
 104   1.0000      -0.053308        -1.4506
 105   1.0000      -0.048548        -1.3211
 106   1.0000      -0.046730        -1.2716
 107   1.0000      -0.029641        -0.8066
 108   1.0000      -0.025506        -0.6941
 109   1.0000      -0.021927        -0.5967
 110   1.0000      -0.016300        -0.4435
 111   1.0000      -0.007484        -0.2037
 112   1.0000      -0.007127        -0.1939
 113   1.0000       0.004157         0.1131
 114   1.0000       0.012518         0.3406
 115   1.0000       0.059012         1.6058
 116   1.0000       0.084839         2.3086
 117   0.0000       0.163085         4.4378
 118   0.0000       0.173553         4.7226
 119   0.0000       0.197340         5.3699
 120   0.0000       0.197935         5.3861
 121   0.0000       0.202598         5.5130

                 SPIN DOWN ORBITALS
  NO   OCC          E(Eh)            E(eV)
   0   1.0000    -196.649329     -5351.1003
   1   1.0000     -88.676107     -2412.9995
   2   1.0000     -88.676079     -2412.9988
   3   1.0000     -88.675107     -2412.9723
   4   1.0000     -88.674908     -2412.9669
   5   1.0000     -88.622363     -2411.5371
   6   1.0000     -88.622215     -2411.5331
   7   1.0000     -88.621505     -2411.5138
   8   1.0000     -88.621485     -2411.5132
   9   1.0000     -22.010081      -598.9247
  10   1.0000     -18.869935      -513.4770
  11   1.0000     -18.525867      -504.1145
  12   1.0000     -18.510627      -503.6998
  13   1.0000     -18.509891      -503.6798
  14   1.0000     -10.010429      -272.3976
  15   1.0000     -10.010417      -272.3973
  16   1.0000     -10.008783      -272.3528
  17   1.0000     -10.008592      -272.3476
  18   1.0000     -10.005138      -272.2536
  19   1.0000     -10.004586      -272.2386
  20   1.0000      -9.997021      -272.0328
  21   1.0000      -9.996806      -272.0269
  22   1.0000      -9.994398      -271.9614
  23   1.0000      -9.992753      -271.9166
  24   1.0000      -7.730266      -210.3512
  25   1.0000      -7.730239      -210.3505
  26   1.0000      -7.729384      -210.3272
  27   1.0000      -7.729194      -210.3221
  28   1.0000      -7.678390      -208.9396
  29   1.0000      -7.678259      -208.9361
  30   1.0000      -7.677216      -208.9077
  31   1.0000      -7.677186      -208.9069
  32   1.0000      -5.695422      -154.9803
  33   1.0000      -5.695382      -154.9792
  34   1.0000      -5.694526      -154.9559
  35   1.0000      -5.694285      -154.9494
  36   1.0000      -5.691315      -154.8685
  37   1.0000      -5.691285      -154.8677
  38   1.0000      -5.690370      -154.8428
  39   1.0000      -5.690139      -154.8366
  40   1.0000      -5.685393      -154.7074
  41   1.0000      -5.685371      -154.7068
  42   1.0000      -5.684588      -154.6855
  43   1.0000      -5.684448      -154.6817
  44   1.0000      -5.642054      -153.5281
  45   1.0000      -5.642050      -153.5280
  46   1.0000      -5.641115      -153.5025
  47   1.0000      -5.641104      -153.5022
  48   1.0000      -5.637800      -153.4123
  49   1.0000      -5.637030      -153.3914
  50   1.0000      -5.636762      -153.3841
  51   1.0000      -5.636735      -153.3834
  52   1.0000      -5.636176      -153.3681
  53   1.0000      -5.636053      -153.3648
  54   1.0000      -5.635690      -153.3549
  55   1.0000      -5.635679      -153.3546
  56   1.0000      -2.374712       -64.6192
  57   1.0000      -1.440567       -39.1998
  58   1.0000      -1.387561       -37.7574
  59   1.0000      -1.387476       -37.7551
  60   1.0000      -0.641265       -17.4497
  61   1.0000      -0.640097       -17.4179
  62   1.0000      -0.634442       -17.2640
  63   1.0000      -0.584800       -15.9132
  64   1.0000      -0.584084       -15.8937
  65   1.0000      -0.583346       -15.8737
  66   1.0000      -0.582795       -15.8587
  67   1.0000      -0.510994       -13.9048
  68   1.0000      -0.507661       -13.8142
  69   1.0000      -0.497573       -13.5396
  70   1.0000      -0.494266       -13.4497
  71   1.0000      -0.441391       -12.0109
  72   1.0000      -0.438047       -11.9199
  73   1.0000      -0.408522       -11.1164
  74   1.0000      -0.406970       -11.0742
  75   1.0000      -0.335636        -9.1331
  76   1.0000      -0.326246        -8.8776
  77   1.0000      -0.280093        -7.6217
  78   1.0000      -0.278256        -7.5717
  79   1.0000      -0.270158        -7.3514
  80   1.0000      -0.269740        -7.3400
  81   1.0000      -0.263300        -7.1648
  82   1.0000      -0.262503        -7.1431
  83   1.0000      -0.236919        -6.4469
  84   1.0000      -0.235859        -6.4180
  85   1.0000      -0.191742        -5.2176
  86   1.0000      -0.188696        -5.1347
  87   1.0000      -0.188080        -5.1179
  88   1.0000      -0.184469        -5.0197
  89   1.0000      -0.180932        -4.9234
  90   1.0000      -0.172704        -4.6995
  91   1.0000      -0.169246        -4.6054
  92   1.0000      -0.167253        -4.5512
  93   1.0000      -0.153496        -4.1768
  94   1.0000      -0.150523        -4.0960
  95   1.0000      -0.134102        -3.6491
  96   1.0000      -0.130516        -3.5515
  97   1.0000      -0.113964        -3.1011
  98   1.0000      -0.105789        -2.8787
  99   1.0000      -0.103363        -2.8126
 100   1.0000      -0.093598        -2.5469
 101   1.0000      -0.091394        -2.4870
 102   1.0000      -0.075041        -2.0420
 103   1.0000      -0.062528        -1.7015
 104   1.0000      -0.052698        -1.4340
 105   1.0000      -0.046805        -1.2736
 106   1.0000      -0.045863        -1.2480
 107   1.0000      -0.029036        -0.7901
 108   1.0000      -0.023012        -0.6262
 109   1.0000      -0.018702        -0.5089
 110   1.0000      -0.016573        -0.4510
 111   1.0000      -0.005590        -0.1521
 112   1.0000      -0.005010        -0.1363
 113   1.0000       0.005059         0.1377
 114   1.0000       0.059652         1.6232
 115   1.0000       0.084259         2.2928
 116   0.0000       0.163644         4.4530
 117   0.0000       0.174184         4.7398
 118   0.0000       0.179641         4.8883
 119   0.0000       0.197793         5.3822
 120   0.0000       0.198742         5.4081

MULLIKEN ATOMIC CHARGES AND SPIN POPULATIONS
--------------------------------------------
   0 V :    0.393699    1.201588
   1 S :   -0.193021   -0.012622
   2 S :   -0.181559   -0.071487
   3 S :   -0.193741   -0.030671
   4 S :   -0.181553    0.031108
   5 O :   -0.494227   -0.138814
   6 C :   -0.196510   -0.117143
   7 C :   -0.195133    0.126717
   8 C :   -0.180835    0.026509
   9 C :   -0.181179   -0.014884
  10 S :   -0.019299   -0.004388
  11 S :   -0.018989    0.003469
  12 S :   -0.023694   -0.000786
  13 S :   -0.023844   -0.000034
  14 C :   -0.317386    0.011688
  15 C :   -0.322693   -0.001563
  16 C :   -0.316365   -0.011147
  17 C :   -0.322292    0.002279
  18 C :   -0.082210    0.000209
  19 H :    0.133166    0.000686
  20 H :    0.086233   -0.003404
  21 H :    0.037710    0.000073
  22 H :    0.080324   -0.000026
  23 H :    0.086437    0.003352
  24 H :    0.133602   -0.000818
  25 C :   -0.082683    0.000203
  26 H :    0.090394    0.000543
  27 H :    0.137710   -0.000253
  28 H :    0.080118   -0.000030
  29 H :    0.039620    0.000060
  30 H :    0.137924    0.000097
  31 H :    0.090280   -0.000513
Sum of atomic charges         :   -2.0000000

LOEWDIN ATOMIC CHARGES AND SPIN POPULATIONS
-------------------------------------------
   0 V :   -0.252486    1.155576
   1 S :    0.161373   -0.005892
   2 S :    0.177983   -0.062727
   3 S :    0.160704   -0.022444
   4 S :    0.178200    0.036553
   5 O :   -0.346595   -0.123755
   6 C :   -0.662428   -0.099112
   7 C :   -0.661389    0.112329
   8 C :   -0.640227    0.025242
   9 C :   -0.640765   -0.010631
  10 S :    0.373526   -0.008185
  11 S :    0.373567    0.005335
  12 S :    0.366675   -0.002231
  13 S :    0.366580   -0.000409
  14 C :   -0.314328    0.013241
  15 C :   -0.308771   -0.001954
  16 C :   -0.314462   -0.013106
  17 C :   -0.308717    0.002283
  18 C :   -0.177606   -0.000050
  19 H :    0.064142   -0.000265
  20 H :    0.044660   -0.001555
  21 H :    0.050238    0.000032
  22 H :    0.056147    0.000009
  23 H :    0.044754    0.001533
  24 H :    0.064309    0.000218
  25 C :   -0.178780   -0.000053
  26 H :    0.044825    0.000269
  27 H :    0.064361    0.000007
  28 H :    0.055727    0.000004
  29 H :    0.049571    0.000033
  30 H :    0.064407   -0.000051
  31 H :    0.044805   -0.000246

  Mayer bond orders larger than 0.100000
B(  0-V ,  1-S ) :   0.7907 B(  0-V ,  2-S ) :   0.7887 B(  0-V ,  3-S ) :   0.7926
B(  0-V ,  4-S ) :   0.7866 B(  0-V ,  5-O ) :   2.1043 B(  1-S ,  8-C ) :   1.1977
B(  1-S ,  9-C ) :   0.1047 B(  2-S ,  6-C ) :   1.2159 B(  2-S ,  7-C ) :   0.1075
B(  3-S ,  8-C ) :   0.1041 B(  3-S ,  9-C ) :   1.1960 B(  4-S ,  6-C ) :   0.1083
B(  4-S ,  7-C ) :   1.2173 B(  6-C ,  7-C ) :   1.1254 B(  6-C , 10-S ) :   1.0866
B(  7-C , 11-S ) :   1.0854 B(  8-C ,  9-C ) :   1.2123 B(  8-C , 13-S ) :   1.0575
B(  9-C , 12-S ) :   1.0584 B( 10-S , 16-C ) :   0.9479 B( 11-S , 14-C ) :   0.9479
B( 12-S , 15-C ) :   0.9606 B( 13-S , 17-C ) :   0.9608 B( 14-C , 18-C ) :   0.9001
B( 14-C , 23-H ) :   0.9614 B( 14-C , 24-H ) :   0.9656 B( 15-C , 25-C ) :   0.8945
B( 15-C , 30-H ) :   0.9688 B( 15-C , 31-H ) :   0.9637 B( 16-C , 18-C ) :   0.8999
B( 16-C , 19-H ) :   0.9657 B( 16-C , 20-H ) :   0.9613 B( 17-C , 25-C ) :   0.8951
B( 17-C , 26-H ) :   0.9638 B( 17-C , 27-H ) :   0.9686 B( 18-C , 21-H ) :   0.9510
B( 18-C , 22-H ) :   0.9818 B( 25-C , 28-H ) :   0.9806 B( 25-C , 29-H ) :   0.9520

FINAL SINGLE POINT ENERGY     -4592.571626488751

DIPOLE MOMENT
-------------
                                X             Y             Z
Electronic contribution:    -11.52516      22.70287      -9.66151
Nuclear contribution   :     12.64355     -25.15598      10.72471
                        -----------------------------------------
Total Dipole Moment    :      1.11839      -2.45311       1.06320
                        -----------------------------------------
Magnitude (a.u.)       :      2.89809
Magnitude (Debye)      :      7.36636

Rotational constants in cm-1:     0.012662     0.002549     0.002428
Rotational constants in MHz :   379.603180    76.430974    72.801293

                             ****ORCA TERMINATED NORMALLY****
TOTAL RUN TIME: 0 days 0 hours 34 minutes 42 seconds 722 msec
