                         Program Version 5.0.4 -  RELEASE  -
|  1> ! nofrozencore ReducedPop printbasis
|  2> ! B3LYP TZVP
|  3>
|  4> %basis
|  5> newgto V "CP(PPP)" end
|  6> end
|  7>
|  8> %pal
|  9> nprocs 4
| 10> end
| 11>
| 12> % sym SymThresh 1e-2 end
| 13> * xyz -2 2
| 14> V -1.0792761522692962 -0.28098453861571193 0.018319550068133926
| 15> S 0.0755506772127971 -1.8622309724262942 -1.4552278498856823
| 16> S 0.03654779205627528 -1.4511729294522406 1.8577645583057112
| 17> S -0.7353195108259818 1.271475202937049 -1.8447260439002395
| 18> S -0.8043417374528161 1.6748443130544435 1.4696371965983897
| 19> O -2.623326066505786 -0.6868050229941666 0.04002453975078241
| 20> C -0.06912397967511331 -0.3235262467210991 3.2094570303871395
| 21> C -0.40788137161174587 0.9836000337125106 3.05305993529555
| 22> C 0.016866326075818314 -1.0859859318767635 -3.0425275051089447
| 23> C -0.3215573021752875 0.22054417106277754 -3.2050290205823386
| 24> S 0.3645428653607598 -1.0190763113933128 4.8112897040004325
| 25> S -0.4886341160356607 2.153614022578259 4.430454003299136
| 26> S -0.34639786254380156 1.026812664967423 -4.818782495946625
| 27> S 0.4753436727334618 -2.152893968185624 -4.423933676888389
| 28> C 1.287808367846832 2.315124683293381 4.90185401371679
| 29> C 1.437466621736577 1.0525868224699289 -5.295198802816084
| 30> C 1.9406525549090543 -0.16085470021293102 5.257981754141162
| 31> C 2.0796519723656797 -1.4328379856617506 -4.986133455048041
| 32> C 1.8252644172385801 1.2089030394235523 5.857005003933598
| 33> H 2.3573613232594037 -0.37153779520257196 4.223114284839648
| 34> H 2.561045354103511 -0.6569547679600886 6.046902725685798
| 35> H 2.8281919582075465 1.5152018891313646 6.196161399175695
| 36> H 1.2675833061168473 0.8640195466459238 6.78420316059135
| 37> H 1.1631759887481246 3.3538524006435675 5.292826439597015
| 38> H 2.1472549648405335 2.2913625666573534 4.147651737306195
| 39> C 1.9861600609297108 -0.2275669547079761 -5.921863188187196
| 40> H 2.5841497869364103 -2.2582861860205687 -5.49818686732819
| 41> H 2.66174894813408 -1.1879380322945208 -4.09490125981999
| 42> H 1.3727823565687087 -0.4858094651782763 -6.79195617544363
| 43> H 2.999835928840828 -0.012186304287761497 -6.296881323186304
| 44> H 1.9974962054568863 1.3315412913443936 -4.400109388931625
| 45> H 1.5271401276934424 1.8721140550521853 -6.015299119318217
| 46> *
| 47>
| 48> % eprnmr
| 49> gtensor true
| 50> Nuclei = all H {aiso,adip,aorb,fgrad,rho}
| 51> Nuclei = all V {aiso,adip,aorb,fgrad,rho}
| 52> end
| 53>
| 54>                          ****END OF INPUT****

CARTESIAN COORDINATES (ANGSTROEM)
---------------------------------
  V     -1.080421   -0.281279    0.018420
  S      0.074405   -1.862525   -1.455127
  S      0.035403   -1.451467    1.857865
  S     -0.736465    1.271181   -1.844625
  S     -0.805487    1.674550    1.469738
  O     -2.624471   -0.687099    0.040125
  C     -0.070269   -0.323821    3.209558
  C     -0.409027    0.983306    3.053161
  C      0.015721   -1.086280   -3.042427
  C     -0.322703    0.220250   -3.204928
  S      0.363398   -1.019371    4.811391
  S     -0.489779    2.153320    4.430555
  S     -0.347543    1.026518   -4.818682
  S      0.474198   -2.153188   -4.423833
  C      1.286663    2.314830    4.901955
  C      1.436321    1.052292   -5.295098
  C      1.939507   -0.161149    5.258083
  C      2.078507   -1.433132   -4.986033
  C      1.824119    1.208609    5.857106
  H      2.356216   -0.371832    4.223215
  H      2.559900   -0.657249    6.047004
  H      2.827047    1.514907    6.196262
  H      1.266438    0.863725    6.784304
  H      1.162031    3.353558    5.292927
  H      2.146110    2.291068    4.147753
  C      1.985015   -0.227861   -5.921762
  H      2.583005   -2.258581   -5.498086
  H      2.660604   -1.188232   -4.094800
  H      1.371637   -0.486104   -6.791855
  H      2.998691   -0.012481   -6.296780
  H      1.996351    1.331247   -4.400008
  H      1.525995    1.871820   -6.015198

 Total Charge           Charge          ....   -2
 Multiplicity           Mult            ....    2
 Number of Electrons    NEL             ....  233
 Basis Dimension        Dim             ....  517

ORBITAL ENERGIES
----------------
                 SPIN UP ORBITALS
  NO   OCC          E(Eh)            E(eV)
   0   1.0000    -196.640720     -5350.8660
   1   1.0000     -88.682884     -2413.1839
   2   1.0000     -88.676835     -2413.0194
   3   1.0000     -88.676618     -2413.0135
   4   1.0000     -88.674482     -2412.9553
   5   1.0000     -88.613157     -2411.2866
   6   1.0000     -88.612802     -2411.2769
   7   1.0000     -88.612380     -2411.2654
   8   1.0000     -88.612333     -2411.2642
   9   1.0000     -22.016524      -599.1001
  10   1.0000     -18.857779      -513.1462
  11   1.0000     -18.523350      -504.0460
  12   1.0000     -18.517573      -503.8888
  13   1.0000     -18.517536      -503.8878
  14   1.0000     -10.027442      -272.8606
  15   1.0000     -10.018517      -272.6177
  16   1.0000     -10.015663      -272.5401
  17   1.0000     -10.015421      -272.5335
  18   1.0000     -10.010992      -272.4130
  19   1.0000     -10.004827      -272.2452
  20   1.0000      -9.993284      -271.9311
  21   1.0000      -9.992166      -271.9006
  22   1.0000      -9.991900      -271.8934
  23   1.0000      -9.991445      -271.8810
  24   1.0000      -7.736215      -210.5131
  25   1.0000      -7.730479      -210.3570
  26   1.0000      -7.730275      -210.3515
  27   1.0000      -7.728412      -210.3008
  28   1.0000      -7.667669      -208.6479
  29   1.0000      -7.667141      -208.6335
  30   1.0000      -7.666827      -208.6250
  31   1.0000      -7.666754      -208.6230
  32   1.0000      -5.701591      -155.1482
  33   1.0000      -5.697632      -155.0404
  34   1.0000      -5.695725      -154.9886
  35   1.0000      -5.695522      -154.9830
  36   1.0000      -5.693566      -154.9298
  37   1.0000      -5.691838      -154.8828
  38   1.0000      -5.691623      -154.8769
  39   1.0000      -5.690822      -154.8551
  40   1.0000      -5.689704      -154.8247
  41   1.0000      -5.685226      -154.7029
  42   1.0000      -5.685028      -154.6975
  43   1.0000      -5.683208      -154.6479
  44   1.0000      -5.632501      -153.2682
  45   1.0000      -5.632013      -153.2549
  46   1.0000      -5.631659      -153.2452
  47   1.0000      -5.631592      -153.2434
  48   1.0000      -5.626092      -153.0938
  49   1.0000      -5.625663      -153.0821
  50   1.0000      -5.625563      -153.0794
  51   1.0000      -5.625266      -153.0713
  52   1.0000      -5.625204      -153.0696
  53   1.0000      -5.625134      -153.0677
  54   1.0000      -5.624804      -153.0587
  55   1.0000      -5.624741      -153.0570
  56   1.0000      -2.410222       -65.5855
  57   1.0000      -1.451584       -39.4996
  58   1.0000      -1.440003       -39.1845
  59   1.0000      -1.438922       -39.1551
  60   1.0000      -0.645511       -17.5652
  61   1.0000      -0.644043       -17.5253
  62   1.0000      -0.618807       -16.8386
  63   1.0000      -0.595733       -16.2107
  64   1.0000      -0.593866       -16.1599
  65   1.0000      -0.576573       -15.6894
  66   1.0000      -0.576125       -15.6772
  67   1.0000      -0.494935       -13.4679
  68   1.0000      -0.490747       -13.3539
  69   1.0000      -0.487423       -13.2635
  70   1.0000      -0.485021       -13.1981
  71   1.0000      -0.423924       -11.5356
  72   1.0000      -0.421009       -11.4563
  73   1.0000      -0.411852       -11.2071
  74   1.0000      -0.405242       -11.0272
  75   1.0000      -0.375197       -10.2096
  76   1.0000      -0.367590       -10.0026
  77   1.0000      -0.299143        -8.1401
  78   1.0000      -0.293004        -7.9730
  79   1.0000      -0.279115        -7.5951
  80   1.0000      -0.277856        -7.5609
  81   1.0000      -0.259457        -7.0602
  82   1.0000      -0.251889        -6.8543
  83   1.0000      -0.242052        -6.5866
  84   1.0000      -0.239904        -6.5281
  85   1.0000      -0.195472        -5.3191
  86   1.0000      -0.192808        -5.2466
  87   1.0000      -0.192116        -5.2277
  88   1.0000      -0.185090        -5.0366
  89   1.0000      -0.184432        -5.0186
  90   1.0000      -0.179571        -4.8864
  91   1.0000      -0.174473        -4.7477
  92   1.0000      -0.158357        -4.3091
  93   1.0000      -0.151069        -4.1108
  94   1.0000      -0.146809        -3.9949
  95   1.0000      -0.142953        -3.8899
  96   1.0000      -0.125124        -3.4048
  97   1.0000      -0.099659        -2.7119
  98   1.0000      -0.096459        -2.6248
  99   1.0000      -0.089181        -2.4267
 100   1.0000      -0.085026        -2.3137
 101   1.0000      -0.080812        -2.1990
 102   1.0000      -0.079184        -2.1547
 103   1.0000      -0.069890        -1.9018
 104   1.0000      -0.050664        -1.3786
 105   1.0000      -0.039432        -1.0730
 106   1.0000      -0.038046        -1.0353
 107   1.0000      -0.036135        -0.9833
 108   1.0000      -0.032264        -0.8779
 109   1.0000      -0.013739        -0.3739
 110   1.0000      -0.004859        -0.1322
 111   1.0000      -0.003761        -0.1023
 112   1.0000       0.005532         0.1505
 113   1.0000       0.010043         0.2733
 114   1.0000       0.015659         0.4261
 115   1.0000       0.033036         0.8990
 116   1.0000       0.059170         1.6101
 117   0.0000       0.185052         5.0355
 118   0.0000       0.193050         5.2532
 119   0.0000       0.193768         5.2727
 120   0.0000       0.196341         5.3427
 121   0.0000       0.210749         5.7348

                 SPIN DOWN ORBITALS
  NO   OCC          E(Eh)            E(eV)
   0   1.0000    -196.640861     -5350.8699
   1   1.0000     -88.682897     -2413.1843
   2   1.0000     -88.676849     -2413.0197
   3   1.0000     -88.676631     -2413.0138
   4   1.0000     -88.674495     -2412.9557
   5   1.0000     -88.613315     -2411.2909
   6   1.0000     -88.612961     -2411.2813
   7   1.0000     -88.612540     -2411.2698
   8   1.0000     -88.612493     -2411.2685
   9   1.0000     -22.001853      -598.7009
  10   1.0000     -18.861367      -513.2439
  11   1.0000     -18.518217      -503.9063
  12   1.0000     -18.502079      -503.4672
  13   1.0000     -18.501402      -503.4487
  14   1.0000     -10.027438      -272.8605
  15   1.0000     -10.018513      -272.6176
  16   1.0000     -10.015659      -272.5399
  17   1.0000     -10.015418      -272.5334
  18   1.0000     -10.010992      -272.4129
  19   1.0000     -10.004827      -272.2452
  20   1.0000      -9.993026      -271.9240
  21   1.0000      -9.991911      -271.8937
  22   1.0000      -9.991651      -271.8866
  23   1.0000      -9.991192      -271.8742
  24   1.0000      -7.736229      -210.5135
  25   1.0000      -7.730493      -210.3574
  26   1.0000      -7.730289      -210.3519
  27   1.0000      -7.728426      -210.3012
  28   1.0000      -7.667816      -208.6519
  29   1.0000      -7.667290      -208.6376
  30   1.0000      -7.666976      -208.6290
  31   1.0000      -7.666903      -208.6270
  32   1.0000      -5.701608      -155.1486
  33   1.0000      -5.697652      -155.0410
  34   1.0000      -5.695742      -154.9890
  35   1.0000      -5.695539      -154.9835
  36   1.0000      -5.693582      -154.9302
  37   1.0000      -5.691858      -154.8833
  38   1.0000      -5.691643      -154.8775
  39   1.0000      -5.690838      -154.8556
  40   1.0000      -5.689725      -154.8253
  41   1.0000      -5.685243      -154.7033
  42   1.0000      -5.685045      -154.6979
  43   1.0000      -5.683225      -154.6484
  44   1.0000      -5.632671      -153.2728
  45   1.0000      -5.632186      -153.2596
  46   1.0000      -5.631831      -153.2499
  47   1.0000      -5.631764      -153.2481
  48   1.0000      -5.626479      -153.1043
  49   1.0000      -5.625953      -153.0900
  50   1.0000      -5.625796      -153.0857
  51   1.0000      -5.625658      -153.0819
  52   1.0000      -5.625597      -153.0803
  53   1.0000      -5.625270      -153.0714
  54   1.0000      -5.624939      -153.0624
  55   1.0000      -5.624877      -153.0607
  56   1.0000      -2.366032       -64.3830
  57   1.0000      -1.432744       -38.9869
  58   1.0000      -1.378587       -37.5133
  59   1.0000      -1.377941       -37.4957
  60   1.0000      -0.645462       -17.5639
  61   1.0000      -0.643993       -17.5239
  62   1.0000      -0.626495       -17.0478
  63   1.0000      -0.595544       -16.2056
  64   1.0000      -0.593666       -16.1545
  65   1.0000      -0.576565       -15.6891
  66   1.0000      -0.576120       -15.6770
  67   1.0000      -0.494950       -13.4683
  68   1.0000      -0.490778       -13.3548
  69   1.0000      -0.487434       -13.2637
  70   1.0000      -0.485051       -13.1989
  71   1.0000      -0.424158       -11.5419
  72   1.0000      -0.421312       -11.4645
  73   1.0000      -0.411870       -11.2076
  74   1.0000      -0.405339       -11.0298
  75   1.0000      -0.375180       -10.2092
  76   1.0000      -0.367585       -10.0025
  77   1.0000      -0.299123        -8.1396
  78   1.0000      -0.292987        -7.9726
  79   1.0000      -0.279095        -7.5946
  80   1.0000      -0.277838        -7.5604
  81   1.0000      -0.259287        -7.0555
  82   1.0000      -0.251796        -6.8517
  83   1.0000      -0.241975        -6.5845
  84   1.0000      -0.239834        -6.5262
  85   1.0000      -0.195022        -5.3068
  86   1.0000      -0.192761        -5.2453
  87   1.0000      -0.192081        -5.2268
  88   1.0000      -0.184854        -5.0301
  89   1.0000      -0.183927        -5.0049
  90   1.0000      -0.178075        -4.8457
  91   1.0000      -0.174385        -4.7453
  92   1.0000      -0.158138        -4.3032
  93   1.0000      -0.150408        -4.0928
  94   1.0000      -0.146565        -3.9882
  95   1.0000      -0.142759        -3.8847
  96   1.0000      -0.124867        -3.3978
  97   1.0000      -0.098758        -2.6873
  98   1.0000      -0.095458        -2.5975
  99   1.0000      -0.089243        -2.4284
 100   1.0000      -0.084882        -2.3097
 101   1.0000      -0.082682        -2.2499
 102   1.0000      -0.079026        -2.1504
 103   1.0000      -0.071035        -1.9330
 104   1.0000      -0.046548        -1.2666
 105   1.0000      -0.039285        -1.0690
 106   1.0000      -0.037600        -1.0232
 107   1.0000      -0.035154        -0.9566
 108   1.0000      -0.032207        -0.8764
 109   1.0000      -0.012847        -0.3496
 110   1.0000      -0.006193        -0.1685
 111   1.0000      -0.002743        -0.0746
 112   1.0000       0.006374         0.1734
 113   1.0000       0.010942         0.2977
 114   1.0000       0.033293         0.9059
 115   1.0000       0.058380         1.5886
 116   0.0000       0.184191         5.0121
 117   0.0000       0.186413         5.0726
 118   0.0000       0.193317         5.2604
 119   0.0000       0.194344         5.2884
 120   0.0000       0.196545         5.3483

MULLIKEN ATOMIC CHARGES AND SPIN POPULATIONS
--------------------------------------------
   0 V :    0.447362    1.199380
   1 S :   -0.253546   -0.024317
   2 S :   -0.253020   -0.023736
   3 S :   -0.253823   -0.024281
   4 S :   -0.252515   -0.024004
   5 O :   -0.506074   -0.139019
   6 C :   -0.140074    0.008527
   7 C :   -0.094980    0.009183
   8 C :   -0.115202    0.008981
   9 C :   -0.116884    0.008839
  10 S :   -0.044738   -0.000189
  11 S :   -0.041944   -0.000158
  12 S :   -0.044694   -0.000202
  13 S :   -0.044755   -0.000223
  14 C :   -0.279434    0.000303
  15 C :   -0.338508    0.000294
  16 C :   -0.353303    0.000188
  17 C :   -0.336085    0.000322
  18 C :   -0.079996    0.000110
  19 H :    0.148100   -0.000070
  20 H :    0.091617    0.000015
  21 H :    0.052856    0.000052
  22 H :    0.061898    0.000009
  23 H :    0.095955    0.000038
  24 H :    0.116427   -0.000067
  25 C :   -0.084799    0.000136
  26 H :    0.101905    0.000030
  27 H :    0.146148   -0.000109
  28 H :    0.078495    0.000012
  29 H :    0.044565    0.000035
  30 H :    0.147535   -0.000106
  31 H :    0.101510    0.000027
Sum of atomic charges         :   -2.0000000

LOEWDIN ATOMIC CHARGES AND SPIN POPULATIONS
-------------------------------------------
   0 V :   -0.242694    1.153372
   1 S :    0.088236   -0.016484
   2 S :    0.091157   -0.016007
   3 S :    0.088124   -0.016426
   4 S :    0.087560   -0.016326
   5 O :   -0.350583   -0.124453
   6 C :   -0.562657    0.009700
   7 C :   -0.544674    0.010271
   8 C :   -0.552301    0.009987
   9 C :   -0.553180    0.009955
  10 S :    0.331172   -0.001061
  11 S :    0.349494   -0.001009
  12 S :    0.336546   -0.001050
  13 S :    0.337058   -0.001054
  14 C :   -0.301354    0.000188
  15 C :   -0.293837    0.000166
  16 C :   -0.317079    0.000145
  17 C :   -0.293555    0.000181
  18 C :   -0.195268   -0.000034
  19 H :    0.071158   -0.000023
  20 H :    0.055038   -0.000003
  21 H :    0.045851    0.000017
  22 H :    0.059385    0.000008
  23 H :    0.047466    0.000016
  24 H :    0.077025   -0.000027
  25 C :   -0.184850   -0.000039
  26 H :    0.047227    0.000010
  27 H :    0.065985   -0.000027
  28 H :    0.053426    0.000011
  29 H :    0.046814    0.000018
  30 H :    0.065921   -0.000027
  31 H :    0.047391    0.000008

  Mayer bond orders larger than 0.100000
B(  0-V ,  1-S ) :   0.7892 B(  0-V ,  2-S ) :   0.7876 B(  0-V ,  3-S ) :   0.7915
B(  0-V ,  4-S ) :   0.7884 B(  0-V ,  5-O ) :   2.1084 B(  1-S ,  8-C ) :   1.1378
B(  2-S ,  6-C ) :   1.1327 B(  3-S ,  9-C ) :   1.1365 B(  4-S ,  7-C ) :   1.1406
B(  6-C ,  7-C ) :   1.5136 B(  6-C , 10-S ) :   0.9658 B(  7-C , 11-S ) :   0.9431
B(  8-C ,  9-C ) :   1.5183 B(  8-C , 13-S ) :   0.9536 B(  9-C , 12-S ) :   0.9542
B( 10-S , 16-C ) :   1.0024 B( 11-S , 14-C ) :   1.0041 B( 12-S , 15-C ) :   1.0050
B( 13-S , 17-C ) :   1.0052 B( 14-C , 18-C ) :   0.9021 B( 14-C , 23-H ) :   0.9744
B( 14-C , 24-H ) :   0.9476 B( 15-C , 25-C ) :   0.8774 B( 15-C , 30-H ) :   0.9757
B( 15-C , 31-H ) :   0.9699 B( 16-C , 18-C ) :   0.8540 B( 16-C , 19-H ) :   0.9760
B( 16-C , 20-H ) :   0.9614 B( 17-C , 25-C ) :   0.8792 B( 17-C , 26-H ) :   0.9704
B( 17-C , 27-H ) :   0.9745 B( 18-C , 21-H ) :   0.9629 B( 18-C , 22-H ) :   0.9586
B( 25-C , 28-H ) :   0.9740 B( 25-C , 29-H ) :   0.9526

FINAL SINGLE POINT ENERGY     -4592.684005647426

DIPOLE MOMENT
-------------
                                X             Y             Z
Electronic contribution:    -25.99653      -6.35045       0.32548
Nuclear contribution   :     28.87838       7.16613      -0.46557
                        -----------------------------------------
Total Dipole Moment    :      2.88185       0.81567      -0.14009
                        -----------------------------------------
Magnitude (a.u.)       :      2.99834
Magnitude (Debye)      :      7.62117

Rotational constants in cm-1:     0.012768     0.002548     0.002431
Rotational constants in MHz :   382.777672    76.396436    72.881195

                             ****ORCA TERMINATED NORMALLY****
TOTAL RUN TIME: 0 days 0 hours 43 minutes 16 seconds 161 msec
