                         Program Version 5.0.4 -  RELEASE  -
|  1> ! nofrozencore ReducedPop printbasis
|  2> ! B3LYP TZVP
|  3>
|  4> %basis
|  5> newgto V "CP(PPP)" end
|  6> end
|  7>
|  8> %pal
|  9> nprocs 4
| 10> end
| 11>
| 12> % sym SymThresh 1e-2 end
| 13> * xyz -2 2
| 14> V 0.11662255075739968 1.054534419518491 0.3442105958009384
| 15> S -1.5686586309131183 1.0353424302064196 -1.4348309850156729
| 16> S -1.5954220472671388 -0.008667254621854813 1.7355907589778337
| 17> S 1.6723899938232316 0.6904483818998023 -1.51217918498367
| 18> S 1.648872084844752 -0.32480551460806967 1.6698540199406378
| 19> O 0.280372257962618 2.565891987935246 0.8323117248895721
| 20> C -0.6824807596162676 -0.7204710670223481 3.0721232247049075
| 21> C 0.6699833520195695 -0.8533355743490839 3.0438681577980575
| 22> C -0.6262514415222611 1.240538687011392 -2.9163240374636596
| 23> C 0.7251415392013125 1.0968851535487676 -2.9488666985220013
| 24> S -1.6881051244612935 -1.2824981464529908 4.46054970235891
| 25> S 1.602078192358353 -1.6115940609967003 4.3898177515918535
| 26> S 1.6870153462657633 1.2684527587884857 -4.465620486700441
| 27> S -1.601226868653502 1.6191169956855551 -4.38689616236392
| 28> C 1.0458016383930022 -3.375702477858362 4.287223415543144
| 29> C 1.1444153700957271 -0.18647839753201872 -5.464798381506545
| 30> C -1.5233755749302513 -3.116987554883069 4.424766428177198
| 31> C -1.425805796233138 0.08836570195225751 -5.4040446133619655
| 32> C -0.2569708897698603 -3.7026276021174467 5.03195159033132
| 33> H -1.6065455985437564 -3.507200590858413 2.947541749664131
| 34> H -2.2299937777290553 -3.4329892687322103 4.80271793026284
| 35> H -0.3641324336469841 -4.7994422446529335 5.0520916697657166
| 36> H -0.2026531158465314 -3.3684230428353996 6.074304229487621
| 37> H 2.0304347366510536 -4.041566818675007 4.886070006550863
| 38> H 1.0357283106004698 -3.5617525327221053 3.663324597654072
| 39> C -0.15663503009815324 -0.018196589125647523 -6.248215256879948
| 40> H -2.300849496620825 0.09003400930747987 -6.061636812150388
| 41> H -1.5202744124363943 -0.761969814732652 -4.725267334540074
| 42> H -0.07733191992723859 0.8646168030958079 -6.891856171114481
| 43> H -0.265772995681124 -0.8905819183335587 -6.912749798933417
| 44> H 1.0875812626908956 -1.0400632486335097 -4.785765230938369
| 45> H 1.9681928007368412 -0.36813860043826874 -6.162271679845187
| 46> *
| 47>
| 48> % eprnmr
| 49> gtensor true
| 50> Nuclei = all H {aiso,adip,aorb,fgrad,rho}
| 51> Nuclei = all V {aiso,adip,aorb,fgrad,rho}
| 52> end
| 53>
| 54>                          ****END OF INPUT****

CARTESIAN COORDINATES (ANGSTROEM)
---------------------------------
  V      0.116739    1.055629    0.344653
  S     -1.568542    1.036437   -1.434388
  S     -1.595305   -0.007572    1.736034
  S      1.672507    0.691543   -1.511736
  S      1.648989   -0.323711    1.670297
  O      0.280489    2.566987    0.832755
  C     -0.682364   -0.719376    3.072566
  C      0.670100   -0.852241    3.044311
  C     -0.626135    1.241634   -2.915881
  C      0.725258    1.097980   -2.948424
  S     -1.687988   -1.281403    4.460993
  S      1.602195   -1.610499    4.390261
  S      1.687132    1.269548   -4.465178
  S     -1.601110    1.620212   -4.386453
  C      1.045918   -3.374608    4.287666
  C      1.144532   -0.185383   -5.464355
  C     -1.523259   -3.115893    4.425209
  C     -1.425689    0.089461   -5.403602
  C     -0.256854   -3.701533    5.032394
  H     -1.606429   -3.506106    2.947985
  H     -2.229877   -3.431894    4.803161
  H     -0.364016   -4.798347    5.052535
  H     -0.202536   -3.367328    6.074747
  H      2.030552   -4.040472    4.886513
  H      1.035845   -3.560658    3.663767
  C     -0.156518   -0.017102   -6.247772
  H     -2.300733    0.091129   -6.061194
  H     -1.520158   -0.760875   -4.724824
  H     -0.077215    0.865712   -6.891413
  H     -0.265656   -0.889487   -6.912307
  H      1.087698   -1.038968   -4.785322
  H      1.968310   -0.367044   -6.161829

 Total Charge           Charge          ....   -2
 Multiplicity           Mult            ....    2
 Number of Electrons    NEL             ....  233
 Basis Dimension        Dim             ....  517

ORBITAL ENERGIES
----------------
                 SPIN UP ORBITALS
  NO   OCC          E(Eh)            E(eV)
   0   1.0000    -196.641010     -5350.8739
   1   1.0000     -88.682008     -2413.1601
   2   1.0000     -88.679191     -2413.0835
   3   1.0000     -88.676758     -2413.0173
   4   1.0000     -88.676731     -2413.0165
   5   1.0000     -88.613983     -2411.3091
   6   1.0000     -88.612813     -2411.2772
   7   1.0000     -88.612493     -2411.2685
   8   1.0000     -88.612487     -2411.2684
   9   1.0000     -22.016839      -599.1087
  10   1.0000     -18.858045      -513.1535
  11   1.0000     -18.523662      -504.0545
  12   1.0000     -18.517887      -503.8973
  13   1.0000     -18.517854      -503.8964
  14   1.0000     -10.024688      -272.7856
  15   1.0000     -10.015523      -272.5362
  16   1.0000     -10.015507      -272.5358
  17   1.0000     -10.009843      -272.3817
  18   1.0000     -10.009637      -272.3761
  19   1.0000     -10.004785      -272.2440
  20   1.0000      -9.994275      -271.9581
  21   1.0000      -9.993257      -271.9303
  22   1.0000      -9.992234      -271.9025
  23   1.0000      -9.991520      -271.8831
  24   1.0000      -7.735459      -210.4925
  25   1.0000      -7.732603      -210.4148
  26   1.0000      -7.730408      -210.3551
  27   1.0000      -7.730389      -210.3546
  28   1.0000      -7.668342      -208.6662
  29   1.0000      -7.667277      -208.6372
  30   1.0000      -7.666940      -208.6280
  31   1.0000      -7.666889      -208.6266
  32   1.0000      -5.700717      -155.1244
  33   1.0000      -5.697899      -155.0477
  34   1.0000      -5.696731      -155.0159
  35   1.0000      -5.695649      -154.9865
  36   1.0000      -5.695636      -154.9861
  37   1.0000      -5.694047      -154.9429
  38   1.0000      -5.691755      -154.8805
  39   1.0000      -5.691746      -154.8803
  40   1.0000      -5.690340      -154.8420
  41   1.0000      -5.687224      -154.7572
  42   1.0000      -5.685167      -154.7013
  43   1.0000      -5.685131      -154.7003
  44   1.0000      -5.633255      -153.2887
  45   1.0000      -5.632122      -153.2578
  46   1.0000      -5.631782      -153.2486
  47   1.0000      -5.631730      -153.2472
  48   1.0000      -5.626765      -153.1121
  49   1.0000      -5.626295      -153.0993
  50   1.0000      -5.625693      -153.0829
  51   1.0000      -5.625372      -153.0741
  52   1.0000      -5.625346      -153.0735
  53   1.0000      -5.625257      -153.0710
  54   1.0000      -5.624908      -153.0615
  55   1.0000      -5.624885      -153.0609
  56   1.0000      -2.410526       -65.5937
  57   1.0000      -1.451875       -39.5075
  58   1.0000      -1.440315       -39.1930
  59   1.0000      -1.439225       -39.1633
  60   1.0000      -0.658062       -17.9068
  61   1.0000      -0.644040       -17.5252
  62   1.0000      -0.619093       -16.8464
  63   1.0000      -0.600490       -16.3402
  64   1.0000      -0.594372       -16.1737
  65   1.0000      -0.593898       -16.1608
  66   1.0000      -0.576131       -15.6773
  67   1.0000      -0.506424       -13.7805
  68   1.0000      -0.493692       -13.4341
  69   1.0000      -0.490657       -13.3514
  70   1.0000      -0.487335       -13.2611
  71   1.0000      -0.444128       -12.0853
  72   1.0000      -0.427789       -11.6407
  73   1.0000      -0.421743       -11.4762
  74   1.0000      -0.410520       -11.1708
  75   1.0000      -0.388328       -10.5669
  76   1.0000      -0.374764       -10.1979
  77   1.0000      -0.295455        -8.0397
  78   1.0000      -0.292979        -7.9724
  79   1.0000      -0.286160        -7.7868
  80   1.0000      -0.277839        -7.5604
  81   1.0000      -0.260469        -7.0877
  82   1.0000      -0.255826        -6.9614
  83   1.0000      -0.245970        -6.6932
  84   1.0000      -0.240652        -6.5485
  85   1.0000      -0.201727        -5.4893
  86   1.0000      -0.194574        -5.2946
  87   1.0000      -0.192393        -5.2353
  88   1.0000      -0.186034        -5.0622
  89   1.0000      -0.184642        -5.0244
  90   1.0000      -0.177991        -4.8434
  91   1.0000      -0.175139        -4.7658
  92   1.0000      -0.156802        -4.2668
  93   1.0000      -0.151628        -4.1260
  94   1.0000      -0.146682        -3.9914
  95   1.0000      -0.143057        -3.8928
  96   1.0000      -0.126536        -3.4432
  97   1.0000      -0.098579        -2.6825
  98   1.0000      -0.096745        -2.6326
  99   1.0000      -0.090762        -2.4698
 100   1.0000      -0.084660        -2.3037
 101   1.0000      -0.082476        -2.2443
 102   1.0000      -0.081083        -2.2064
 103   1.0000      -0.070795        -1.9264
 104   1.0000      -0.051094        -1.3903
 105   1.0000      -0.039515        -1.0753
 106   1.0000      -0.039098        -1.0639
 107   1.0000      -0.036848        -1.0027
 108   1.0000      -0.033071        -0.8999
 109   1.0000      -0.014250        -0.3877
 110   1.0000      -0.005423        -0.1476
 111   1.0000      -0.004482        -0.1220
 112   1.0000       0.005344         0.1454
 113   1.0000       0.009546         0.2597
 114   1.0000       0.015337         0.4173
 115   1.0000       0.032691         0.8896
 116   1.0000       0.058917         1.6032
 117   0.0000       0.175466         4.7747
 118   0.0000       0.183821         5.0020
 119   0.0000       0.191460         5.2099
 120   0.0000       0.196399         5.3443
 121   0.0000       0.202316         5.5053

                 SPIN DOWN ORBITALS
  NO   OCC          E(Eh)            E(eV)
   0   1.0000    -196.641151     -5350.8778
   1   1.0000     -88.682021     -2413.1605
   2   1.0000     -88.679204     -2413.0838
   3   1.0000     -88.676771     -2413.0176
   4   1.0000     -88.676745     -2413.0169
   5   1.0000     -88.614139     -2411.3133
   6   1.0000     -88.612973     -2411.2816
   7   1.0000     -88.612654     -2411.2729
   8   1.0000     -88.612648     -2411.2727
   9   1.0000     -22.002168      -598.7094
  10   1.0000     -18.861634      -513.2512
  11   1.0000     -18.518528      -503.9148
  12   1.0000     -18.502402      -503.4760
  13   1.0000     -18.501712      -503.4572
  14   1.0000     -10.024685      -272.7855
  15   1.0000     -10.015519      -272.5361
  16   1.0000     -10.015503      -272.5357
  17   1.0000     -10.009841      -272.3816
  18   1.0000     -10.009635      -272.3760
  19   1.0000     -10.004785      -272.2440
  20   1.0000      -9.994020      -271.9511
  21   1.0000      -9.993004      -271.9235
  22   1.0000      -9.991979      -271.8956
  23   1.0000      -9.991267      -271.8762
  24   1.0000      -7.735473      -210.4929
  25   1.0000      -7.732617      -210.4152
  26   1.0000      -7.730422      -210.3555
  27   1.0000      -7.730403      -210.3550
  28   1.0000      -7.668487      -208.6701
  29   1.0000      -7.667425      -208.6412
  30   1.0000      -7.667089      -208.6321
  31   1.0000      -7.667038      -208.6307
  32   1.0000      -5.700733      -155.1248
  33   1.0000      -5.697916      -155.0482
  34   1.0000      -5.696750      -155.0165
  35   1.0000      -5.695665      -154.9869
  36   1.0000      -5.695653      -154.9866
  37   1.0000      -5.694068      -154.9435
  38   1.0000      -5.691776      -154.8811
  39   1.0000      -5.691766      -154.8808
  40   1.0000      -5.690354      -154.8424
  41   1.0000      -5.687241      -154.7577
  42   1.0000      -5.685184      -154.7017
  43   1.0000      -5.685148      -154.7007
  44   1.0000      -5.633424      -153.2933
  45   1.0000      -5.632293      -153.2625
  46   1.0000      -5.631955      -153.2533
  47   1.0000      -5.631902      -153.2518
  48   1.0000      -5.627144      -153.1224
  49   1.0000      -5.626429      -153.1029
  50   1.0000      -5.626084      -153.0935
  51   1.0000      -5.625766      -153.0849
  52   1.0000      -5.625741      -153.0842
  53   1.0000      -5.625394      -153.0747
  54   1.0000      -5.625044      -153.0652
  55   1.0000      -5.625020      -153.0646
  56   1.0000      -2.366335       -64.3912
  57   1.0000      -1.433033       -38.9948
  58   1.0000      -1.378903       -37.5219
  59   1.0000      -1.378242       -37.5039
  60   1.0000      -0.658034       -17.9060
  61   1.0000      -0.643990       -17.5239
  62   1.0000      -0.626777       -17.0555
  63   1.0000      -0.600319       -16.3355
  64   1.0000      -0.594325       -16.1724
  65   1.0000      -0.593702       -16.1555
  66   1.0000      -0.576126       -15.6772
  67   1.0000      -0.506390       -13.7796
  68   1.0000      -0.493713       -13.4346
  69   1.0000      -0.490690       -13.3524
  70   1.0000      -0.487349       -13.2614
  71   1.0000      -0.444271       -12.0892
  72   1.0000      -0.427971       -11.6457
  73   1.0000      -0.422033       -11.4841
  74   1.0000      -0.410571       -11.1722
  75   1.0000      -0.388338       -10.5672
  76   1.0000      -0.374769       -10.1980
  77   1.0000      -0.295430        -8.0391
  78   1.0000      -0.292962        -7.9719
  79   1.0000      -0.286139        -7.7862
  80   1.0000      -0.277820        -7.5599
  81   1.0000      -0.260273        -7.0824
  82   1.0000      -0.255788        -6.9603
  83   1.0000      -0.245886        -6.6909
  84   1.0000      -0.240569        -6.5462
  85   1.0000      -0.201646        -5.4871
  86   1.0000      -0.194177        -5.2838
  87   1.0000      -0.192357        -5.2343
  88   1.0000      -0.185133        -5.0377
  89   1.0000      -0.184309        -5.0153
  90   1.0000      -0.177312        -4.8249
  91   1.0000      -0.174705        -4.7540
  92   1.0000      -0.156568        -4.2604
  93   1.0000      -0.150959        -4.1078
  94   1.0000      -0.146445        -3.9850
  95   1.0000      -0.142861        -3.8875
  96   1.0000      -0.126323        -3.4374
  97   1.0000      -0.097211        -2.6452
  98   1.0000      -0.096125        -2.6157
  99   1.0000      -0.090858        -2.4724
 100   1.0000      -0.084665        -2.3039
 101   1.0000      -0.082995        -2.2584
 102   1.0000      -0.082006        -2.2315
 103   1.0000      -0.072122        -1.9625
 104   1.0000      -0.046995        -1.2788
 105   1.0000      -0.039651        -1.0790
 106   1.0000      -0.038307        -1.0424
 107   1.0000      -0.035870        -0.9761
 108   1.0000      -0.033027        -0.8987
 109   1.0000      -0.013345        -0.3631
 110   1.0000      -0.006621        -0.1802
 111   1.0000      -0.003572        -0.0972
 112   1.0000       0.006145         0.1672
 113   1.0000       0.010458         0.2846
 114   1.0000       0.032947         0.8965
 115   1.0000       0.058123         1.5816
 116   0.0000       0.175529         4.7764
 117   0.0000       0.183933         5.0051
 118   0.0000       0.184961         5.0330
 119   0.0000       0.192449         5.2368
 120   0.0000       0.196597         5.3497

MULLIKEN ATOMIC CHARGES AND SPIN POPULATIONS
--------------------------------------------
   0 V :    0.446773    1.199374
   1 S :   -0.253685   -0.024410
   2 S :   -0.248997   -0.023430
   3 S :   -0.253108   -0.024374
   4 S :   -0.250735   -0.024075
   5 O :   -0.505819   -0.139025
   6 C :   -0.101523    0.008916
   7 C :   -0.119526    0.008746
   8 C :   -0.115718    0.008973
   9 C :   -0.116058    0.008887
  10 S :   -0.032962   -0.000031
  11 S :   -0.051310   -0.000249
  12 S :   -0.044585   -0.000200
  13 S :   -0.044882   -0.000227
  14 C :   -0.371688    0.000507
  15 C :   -0.338736    0.000296
  16 C :   -0.392247    0.000214
  17 C :   -0.337370    0.000319
  18 C :   -0.084515    0.000150
  19 H :    0.052691   -0.000253
  20 H :    0.197812    0.000020
  21 H :    0.047840    0.000038
  22 H :    0.081988    0.000021
  23 H :    0.015039   -0.000012
  24 H :    0.283925   -0.000202
  25 C :   -0.083978    0.000136
  26 H :    0.101746    0.000029
  27 H :    0.147062   -0.000109
  28 H :    0.078400    0.000012
  29 H :    0.044717    0.000036
  30 H :    0.147599   -0.000105
  31 H :    0.101850    0.000027
Sum of atomic charges         :   -2.0000000

LOEWDIN ATOMIC CHARGES AND SPIN POPULATIONS
-------------------------------------------
   0 V :   -0.242304    1.153360
   1 S :    0.088398   -0.016523
   2 S :    0.093015   -0.015806
   3 S :    0.088566   -0.016531
   4 S :    0.089662   -0.016311
   5 O :   -0.350644   -0.124448
   6 C :   -0.550217    0.010012
   7 C :   -0.549909    0.009912
   8 C :   -0.552481    0.009982
   9 C :   -0.552808    0.009980
  10 S :    0.349782   -0.000929
  11 S :    0.346322   -0.001048
  12 S :    0.336883   -0.001047
  13 S :    0.336788   -0.001057
  14 C :   -0.137468    0.000170
  15 C :   -0.293683    0.000168
  16 C :   -0.254500    0.000149
  17 C :   -0.293654    0.000179
  18 C :   -0.165605   -0.000033
  19 H :    0.064335   -0.000168
  20 H :   -0.022316    0.000003
  21 H :    0.049764    0.000016
  22 H :    0.057296    0.000016
  23 H :    0.059297   -0.000010
  24 H :   -0.136812    0.000010
  25 C :   -0.184781   -0.000039
  26 H :    0.047333    0.000010
  27 H :    0.066002   -0.000027
  28 H :    0.053422    0.000011
  29 H :    0.046870    0.000018
  30 H :    0.066106   -0.000027
  31 H :    0.047344    0.000008

  Mayer bond orders larger than 0.100000
B(  0-V ,  1-S ) :   0.7900 B(  0-V ,  2-S ) :   0.7854 B(  0-V ,  3-S ) :   0.7922
B(  0-V ,  4-S ) :   0.7886 B(  0-V ,  5-O ) :   2.1083 B(  1-S ,  8-C ) :   1.1373
B(  2-S ,  6-C ) :   1.1383 B(  3-S ,  9-C ) :   1.1366 B(  4-S ,  7-C ) :   1.1384
B(  6-C ,  7-C ) :   1.5152 B(  6-C , 10-S ) :   0.9446 B(  7-C , 11-S ) :   0.9556
B(  8-C ,  9-C ) :   1.5184 B(  8-C , 13-S ) :   0.9539 B(  9-C , 12-S ) :   0.9540
B( 10-S , 16-C ) :   1.0115 B( 11-S , 14-C ) :   0.9855 B( 12-S , 15-C ) :   1.0048
B( 13-S , 17-C ) :   1.0053 B( 14-C , 18-C ) :   0.8765 B( 14-C , 23-H ) :   0.9400
B( 14-C , 24-H ) :   0.9876 B( 15-C , 25-C ) :   0.8779 B( 15-C , 30-H ) :   0.9752
B( 15-C , 31-H ) :   0.9701 B( 16-C , 18-C ) :   0.8818 B( 16-C , 19-H ) :   0.9422
B( 16-C , 20-H ) :   0.9543 B( 17-C , 25-C ) :   0.8782 B( 17-C , 26-H ) :   0.9702
B( 17-C , 27-H ) :   0.9751 B( 18-C , 21-H ) :   0.9531 B( 18-C , 22-H ) :   0.9639
B( 25-C , 28-H ) :   0.9739 B( 25-C , 29-H ) :   0.9526

FINAL SINGLE POINT ENERGY     -4592.278042124874

DIPOLE MOMENT
-------------
                                X             Y             Z
Electronic contribution:      2.44581      25.46111       8.31776
Nuclear contribution   :     -2.83328     -28.15400      -9.20142
                        -----------------------------------------
Total Dipole Moment    :     -0.38747      -2.69289      -0.88366
                        -----------------------------------------
Magnitude (a.u.)       :      2.86053
Magnitude (Debye)      :      7.27089

Rotational constants in cm-1:     0.012770     0.002548     0.002431
Rotational constants in MHz :   382.832877    76.394776    72.880442

                             ****ORCA TERMINATED NORMALLY****
TOTAL RUN TIME: 0 days 0 hours 43 minutes 26 seconds 547 msec
