                         Program Version 5.0.4 -  RELEASE  -
|  1> ! nofrozencore ReducedPop printbasis
|  2> ! B3LYP TZVP
|  3>
|  4> %basis
|  5> newgto V "CP(PPP)" end
|  6> end
|  7>
|  8> %pal
|  9> nprocs 8
| 10> end
| 11>
| 12> % sym SymThresh 1e-2 end
| 13> * xyz -2 2
| 14> V 0.8381279118545802 -0.15794546811162036 0.7188331495495198
| 15> S 1.4898208537744528 1.654570724250195 -0.7961754811371334
| 16> S -0.7091329325520594 1.4624357753984505 1.707705709580796
| 17> S 1.2507321714807484 -1.5661539250244618 -1.242347185760697
| 18> S -0.9263234433655022 -1.762842989509522 1.283305989745474
| 19> O 2.0413145647003246 -0.38058097836026866 1.744517536970513
| 20> C -1.872505296944301 0.46397828829260246 2.5887355447195843
| 21> C -1.963753582099684 -0.8804546771132926 2.4104674022035613
| 22> C 2.271729240937749 0.8218571681325846 -2.1461801275127135
| 23> C 2.1708942146554056 -0.5213846530149279 -2.331155271737426
| 24> S -2.9466895532832167 1.372507983540807 3.7180233004434364
| 25> S -3.1733802915747016 -1.8979482345621816 3.2806076329024116
| 26> S 2.9351711083233747 -1.3707200524842582 -3.728957192122255
| 27> S 3.1797161845190933 1.8965509413784662 -3.274189073067375
| 28> C -4.781829983233242 -1.3271330987173457 2.572914462864725
| 29> C 1.958398354035819 -0.7553617367140335 -5.179214320653583
| 30> C -4.604986696082698 1.228182564284698 2.9194650496009413
| 31> C 2.185992000487078 1.7952726400526897 -4.818927434887741
| 32> C -5.376509185511464 -0.06056969589099003 3.191549137224043
| 33> H -4.469682288427729 1.4015982017642736 1.8488698370898395
| 34> H -5.172646562750637 2.091670472623026 3.283064357164963
| 35> H -6.395304175006487 0.06472357602412888 2.7902588880618677
| 36> H -5.474888793806661 -0.19794142969513556 4.273806720595177
| 37> H -5.46836843522194 -2.160367832143461 2.750613283452458
| 38> H -4.623570093433441 -1.1884601211252375 1.5015851322145777
| 39> C 2.4195153930925706 0.615422875172481 -5.729947974404353
| 40> H 2.1819151404049246 2.8239327434720543 -5.301810966670648
| 41> H 1.1171058929445523 2.1162021026755653 -4.615598221597615
| 42> H 3.485858416865157 0.5867481570131974 -5.979525771764259
| 43> H 1.875294541478457 0.8012824120495778 -6.6702000985828835
| 44> H 0.9635905900414544 -0.5118560429389406 -4.722268192019536
| 45> H 2.340328761986209 -1.4413316248262262 -5.980834551377081
| 46> *
| 47>
| 48> % eprnmr
| 49> gtensor true
| 50> Nuclei = all H {aiso,adip,aorb,fgrad,rho}
| 51> Nuclei = all V {aiso,adip,aorb,fgrad,rho}
| 52> end
| 53>
| 54>                          ****END OF INPUT****

CARTESIAN COORDINATES (ANGSTROEM)
---------------------------------
  V      0.838965   -0.158111    0.719658
  S      1.490658    1.654405   -0.795350
  S     -0.708296    1.462270    1.708531
  S      1.251569   -1.566320   -1.241522
  S     -0.925487   -1.763009    1.284131
  O      2.042151   -0.380747    1.745343
  C     -1.871669    0.463812    2.589561
  C     -1.962917   -0.880621    2.411293
  C      2.272566    0.821691   -2.145355
  C      2.171731   -0.521551   -2.330330
  S     -2.945853    1.372342    3.718848
  S     -3.172544   -1.898114    3.281433
  S      2.936008   -1.370886   -3.728132
  S      3.180553    1.896385   -3.273364
  C     -4.780993   -1.327299    2.573740
  C      1.959235   -0.755528   -5.178389
  C     -4.604150    1.228017    2.920290
  C      2.186829    1.795107   -4.818102
  C     -5.375673   -0.060736    3.192374
  H     -4.468846    1.401432    1.849695
  H     -5.171810    2.091504    3.283889
  H     -6.394468    0.064558    2.791084
  H     -5.474052   -0.198107    4.274632
  H     -5.467532   -2.160534    2.751438
  H     -4.622733   -1.188626    1.502410
  C      2.420352    0.615257   -5.729123
  H      2.182752    2.823767   -5.300986
  H      1.117943    2.116036   -4.614773
  H      3.486695    0.586582   -5.978701
  H      1.876131    0.801116   -6.669375
  H      0.964427   -0.512022   -4.721443
  H      2.341165   -1.441498   -5.980009

 Total Charge           Charge          ....   -2
 Multiplicity           Mult            ....    2
 Number of Electrons    NEL             ....  233
 Basis Dimension        Dim             ....  517

ORBITAL ENERGIES
----------------
                 SPIN UP ORBITALS
  NO   OCC          E(Eh)            E(eV)
   0   1.0000    -196.640292     -5350.8544
   1   1.0000     -88.679667     -2413.0964
   2   1.0000     -88.676764     -2413.0174
   3   1.0000     -88.676417     -2413.0080
   4   1.0000     -88.675005     -2412.9696
   5   1.0000     -88.612489     -2411.2684
   6   1.0000     -88.612143     -2411.2590
   7   1.0000     -88.612078     -2411.2572
   8   1.0000     -88.611952     -2411.2538
   9   1.0000     -22.016087      -599.0882
  10   1.0000     -18.857357      -513.1348
  11   1.0000     -18.522914      -504.0341
  12   1.0000     -18.517136      -503.8769
  13   1.0000     -18.517097      -503.8758
  14   1.0000     -10.024792      -272.7884
  15   1.0000     -10.020732      -272.6780
  16   1.0000     -10.015690      -272.5408
  17   1.0000     -10.015276      -272.5295
  18   1.0000     -10.005889      -272.2741
  19   1.0000     -10.004713      -272.2421
  20   1.0000      -9.992235      -271.9025
  21   1.0000      -9.991890      -271.8931
  22   1.0000      -9.991261      -271.8760
  23   1.0000      -9.991176      -271.8737
  24   1.0000      -7.732968      -210.4247
  25   1.0000      -7.730380      -210.3543
  26   1.0000      -7.730069      -210.3459
  27   1.0000      -7.728807      -210.3115
  28   1.0000      -7.666930      -208.6278
  29   1.0000      -7.666560      -208.6177
  30   1.0000      -7.666503      -208.6161
  31   1.0000      -7.666419      -208.6139
  32   1.0000      -5.698271      -155.0578
  33   1.0000      -5.695635      -154.9861
  34   1.0000      -5.695304      -154.9771
  35   1.0000      -5.694325      -154.9505
  36   1.0000      -5.694005      -154.9418
  37   1.0000      -5.691734      -154.8799
  38   1.0000      -5.691424      -154.8715
  39   1.0000      -5.690141      -154.8366
  40   1.0000      -5.687730      -154.7710
  41   1.0000      -5.685130      -154.7002
  42   1.0000      -5.684828      -154.6920
  43   1.0000      -5.683589      -154.6583
  44   1.0000      -5.631789      -153.2488
  45   1.0000      -5.631396      -153.2381
  46   1.0000      -5.631339      -153.2365
  47   1.0000      -5.631252      -153.2342
  48   1.0000      -5.625339      -153.0733
  49   1.0000      -5.625017      -153.0645
  50   1.0000      -5.624947      -153.0626
  51   1.0000      -5.624918      -153.0618
  52   1.0000      -5.624833      -153.0595
  53   1.0000      -5.624550      -153.0518
  54   1.0000      -5.624493      -153.0502
  55   1.0000      -5.624406      -153.0479
  56   1.0000      -2.409773       -65.5733
  57   1.0000      -1.451138       -39.4875
  58   1.0000      -1.439554       -39.1723
  59   1.0000      -1.438475       -39.1429
  60   1.0000      -0.644263       -17.5313
  61   1.0000      -0.643822       -17.5193
  62   1.0000      -0.618399       -16.8275
  63   1.0000      -0.594188       -16.1687
  64   1.0000      -0.593624       -16.1533
  65   1.0000      -0.575828       -15.6691
  66   1.0000      -0.575451       -15.6588
  67   1.0000      -0.491916       -13.3857
  68   1.0000      -0.489968       -13.3327
  69   1.0000      -0.487561       -13.2672
  70   1.0000      -0.486356       -13.2344
  71   1.0000      -0.424131       -11.5412
  72   1.0000      -0.420972       -11.4552
  73   1.0000      -0.412145       -11.2150
  74   1.0000      -0.406911       -11.0726
  75   1.0000      -0.376385       -10.2419
  76   1.0000      -0.373275       -10.1573
  77   1.0000      -0.306521        -8.3409
  78   1.0000      -0.293058        -7.9745
  79   1.0000      -0.283276        -7.7083
  80   1.0000      -0.277847        -7.5606
  81   1.0000      -0.259183        -7.0527
  82   1.0000      -0.251007        -6.8302
  83   1.0000      -0.240434        -6.5426
  84   1.0000      -0.224516        -6.1094
  85   1.0000      -0.206016        -5.6060
  86   1.0000      -0.194835        -5.3017
  87   1.0000      -0.192261        -5.2317
  88   1.0000      -0.187678        -5.1070
  89   1.0000      -0.184413        -5.0181
  90   1.0000      -0.179854        -4.8941
  91   1.0000      -0.168745        -4.5918
  92   1.0000      -0.150958        -4.1078
  93   1.0000      -0.148913        -4.0521
  94   1.0000      -0.142796        -3.8857
  95   1.0000      -0.141568        -3.8522
  96   1.0000      -0.130727        -3.5573
  97   1.0000      -0.097516        -2.6535
  98   1.0000      -0.094980        -2.5846
  99   1.0000      -0.089648        -2.4394
 100   1.0000      -0.083586        -2.2745
 101   1.0000      -0.080597        -2.1932
 102   1.0000      -0.080288        -2.1847
 103   1.0000      -0.069956        -1.9036
 104   1.0000      -0.050238        -1.3671
 105   1.0000      -0.039378        -1.0715
 106   1.0000      -0.037503        -1.0205
 107   1.0000      -0.035927        -0.9776
 108   1.0000      -0.031845        -0.8666
 109   1.0000      -0.013267        -0.3610
 110   1.0000      -0.004495        -0.1223
 111   1.0000      -0.003495        -0.0951
 112   1.0000       0.006034         0.1642
 113   1.0000       0.010437         0.2840
 114   1.0000       0.016102         0.4382
 115   1.0000       0.033343         0.9073
 116   1.0000       0.059529         1.6199
 117   0.0000       0.187032         5.0894
 118   0.0000       0.191607         5.2139
 119   0.0000       0.194298         5.2871
 120   0.0000       0.196444         5.3455
 121   0.0000       0.211220         5.7476

                 SPIN DOWN ORBITALS
  NO   OCC          E(Eh)            E(eV)
   0   1.0000    -196.640433     -5350.8582
   1   1.0000     -88.679680     -2413.0968
   2   1.0000     -88.676777     -2413.0178
   3   1.0000     -88.676430     -2413.0083
   4   1.0000     -88.675018     -2412.9699
   5   1.0000     -88.612648     -2411.2727
   6   1.0000     -88.612303     -2411.2634
   7   1.0000     -88.612238     -2411.2616
   8   1.0000     -88.612112     -2411.2581
   9   1.0000     -22.001419      -598.6891
  10   1.0000     -18.860930      -513.2320
  11   1.0000     -18.517786      -503.8946
  12   1.0000     -18.501644      -503.4553
  13   1.0000     -18.500966      -503.4369
  14   1.0000     -10.024788      -272.7884
  15   1.0000     -10.020727      -272.6779
  16   1.0000     -10.015687      -272.5407
  17   1.0000     -10.015273      -272.5294
  18   1.0000     -10.005888      -272.2741
  19   1.0000     -10.004713      -272.2421
  20   1.0000      -9.991980      -271.8956
  21   1.0000      -9.991636      -271.8862
  22   1.0000      -9.991008      -271.8692
  23   1.0000      -9.990923      -271.8668
  24   1.0000      -7.732981      -210.4251
  25   1.0000      -7.730394      -210.3547
  26   1.0000      -7.730083      -210.3462
  27   1.0000      -7.728821      -210.3119
  28   1.0000      -7.667077      -208.6318
  29   1.0000      -7.666708      -208.6217
  30   1.0000      -7.666651      -208.6202
  31   1.0000      -7.666567      -208.6179
  32   1.0000      -5.698287      -155.0583
  33   1.0000      -5.695652      -154.9866
  34   1.0000      -5.695321      -154.9776
  35   1.0000      -5.694345      -154.9510
  36   1.0000      -5.694022      -154.9422
  37   1.0000      -5.691754      -154.8805
  38   1.0000      -5.691444      -154.8721
  39   1.0000      -5.690161      -154.8372
  40   1.0000      -5.687747      -154.7715
  41   1.0000      -5.685146      -154.7007
  42   1.0000      -5.684845      -154.6925
  43   1.0000      -5.683606      -154.6588
  44   1.0000      -5.631960      -153.2534
  45   1.0000      -5.631568      -153.2428
  46   1.0000      -5.631510      -153.2412
  47   1.0000      -5.631423      -153.2388
  48   1.0000      -5.625730      -153.0839
  49   1.0000      -5.625408      -153.0751
  50   1.0000      -5.625338      -153.0732
  51   1.0000      -5.625224      -153.0701
  52   1.0000      -5.625052      -153.0654
  53   1.0000      -5.624685      -153.0555
  54   1.0000      -5.624629      -153.0539
  55   1.0000      -5.624541      -153.0515
  56   1.0000      -2.365598       -64.3712
  57   1.0000      -1.432320       -38.9754
  58   1.0000      -1.378146       -37.5013
  59   1.0000      -1.377501       -37.4837
  60   1.0000      -0.644213       -17.5299
  61   1.0000      -0.643772       -17.5179
  62   1.0000      -0.626050       -17.0357
  63   1.0000      -0.594000       -16.1636
  64   1.0000      -0.593418       -16.1477
  65   1.0000      -0.575823       -15.6689
  66   1.0000      -0.575445       -15.6587
  67   1.0000      -0.491939       -13.3864
  68   1.0000      -0.490003       -13.3337
  69   1.0000      -0.487565       -13.2673
  70   1.0000      -0.486377       -13.2350
  71   1.0000      -0.424362       -11.5475
  72   1.0000      -0.421269       -11.4633
  73   1.0000      -0.412167       -11.2156
  74   1.0000      -0.407016       -11.0755
  75   1.0000      -0.376340       -10.2407
  76   1.0000      -0.373302       -10.1581
  77   1.0000      -0.306516        -8.3407
  78   1.0000      -0.293042        -7.9741
  79   1.0000      -0.283249        -7.7076
  80   1.0000      -0.277829        -7.5601
  81   1.0000      -0.258997        -7.0477
  82   1.0000      -0.250871        -6.8265
  83   1.0000      -0.240350        -6.5403
  84   1.0000      -0.224491        -6.1087
  85   1.0000      -0.205990        -5.6053
  86   1.0000      -0.194535        -5.2936
  87   1.0000      -0.192086        -5.2269
  88   1.0000      -0.187252        -5.0954
  89   1.0000      -0.184368        -5.0169
  90   1.0000      -0.178108        -4.8466
  91   1.0000      -0.168627        -4.5886
  92   1.0000      -0.150303        -4.0899
  93   1.0000      -0.148579        -4.0430
  94   1.0000      -0.142593        -3.8801
  95   1.0000      -0.141342        -3.8461
  96   1.0000      -0.130568        -3.5529
  97   1.0000      -0.095979        -2.6117
  98   1.0000      -0.094505        -2.5716
  99   1.0000      -0.089785        -2.4432
 100   1.0000      -0.083565        -2.2739
 101   1.0000      -0.082246        -2.2380
 102   1.0000      -0.080077        -2.1790
 103   1.0000      -0.071248        -1.9388
 104   1.0000      -0.046151        -1.2558
 105   1.0000      -0.039237        -1.0677
 106   1.0000      -0.037036        -1.0078
 107   1.0000      -0.034938        -0.9507
 108   1.0000      -0.031755        -0.8641
 109   1.0000      -0.012357        -0.3363
 110   1.0000      -0.005835        -0.1588
 111   1.0000      -0.002495        -0.0679
 112   1.0000       0.006884         0.1873
 113   1.0000       0.011332         0.3084
 114   1.0000       0.033600         0.9143
 115   1.0000       0.058738         1.5983
 116   0.0000       0.185083         5.0364
 117   0.0000       0.188099         5.1184
 118   0.0000       0.191741         5.2175
 119   0.0000       0.194943         5.3047
 120   0.0000       0.196635         5.3507

MULLIKEN ATOMIC CHARGES AND SPIN POPULATIONS
--------------------------------------------
   0 V :    0.447456    1.199072
   1 S :   -0.255253   -0.024121
   2 S :   -0.254504   -0.024104
   3 S :   -0.252850   -0.024131
   4 S :   -0.253596   -0.024019
   5 O :   -0.506386   -0.138683
   6 C :   -0.116625    0.008845
   7 C :   -0.115744    0.008854
   8 C :   -0.106404    0.008961
   9 C :   -0.123271    0.008862
  10 S :   -0.044369   -0.000163
  11 S :   -0.045030   -0.000198
  12 S :   -0.043436   -0.000190
  13 S :   -0.020954   -0.000192
  14 C :   -0.338212    0.000289
  15 C :   -0.335323    0.000305
  16 C :   -0.338583    0.000270
  17 C :   -0.364015    0.000254
  18 C :   -0.083802    0.000136
  19 H :    0.145648   -0.000100
  20 H :    0.101432    0.000021
  21 H :    0.044419    0.000038
  22 H :    0.078475    0.000018
  23 H :    0.102122    0.000022
  24 H :    0.148444   -0.000106
  25 C :   -0.076331    0.000171
  26 H :    0.089742    0.000053
  27 H :    0.124139   -0.000107
  28 H :    0.078815    0.000006
  29 H :    0.043365    0.000039
  30 H :    0.173323   -0.000139
  31 H :    0.097309    0.000036
Sum of atomic charges         :   -2.0000000

LOEWDIN ATOMIC CHARGES AND SPIN POPULATIONS
-------------------------------------------
   0 V :   -0.242969    1.153098
   1 S :    0.087812   -0.016289
   2 S :    0.087674   -0.016315
   3 S :    0.089663   -0.016351
   4 S :    0.088212   -0.016305
   5 O :   -0.350864   -0.124141
   6 C :   -0.553065    0.009986
   7 C :   -0.552941    0.009947
   8 C :   -0.551248    0.010007
   9 C :   -0.557534    0.009941
  10 S :    0.337438   -0.001023
  11 S :    0.336016   -0.001045
  12 S :    0.330809   -0.001044
  13 S :    0.347018   -0.001024
  14 C :   -0.292067    0.000165
  15 C :   -0.297687    0.000169
  16 C :   -0.295648    0.000156
  17 C :   -0.335270    0.000176
  18 C :   -0.184851   -0.000036
  19 H :    0.065157   -0.000028
  20 H :    0.047226    0.000005
  21 H :    0.046769    0.000017
  22 H :    0.053377    0.000013
  23 H :    0.047516    0.000005
  24 H :    0.066887   -0.000027
  25 C :   -0.189908   -0.000038
  26 H :    0.056638    0.000023
  27 H :    0.068393   -0.000044
  28 H :    0.052219    0.000011
  29 H :    0.047741    0.000018
  30 H :    0.088023   -0.000028
  31 H :    0.059462    0.000001

  Mayer bond orders larger than 0.100000
B(  0-V ,  1-S ) :   0.7857 B(  0-V ,  2-S ) :   0.7904 B(  0-V ,  3-S ) :   0.7915
B(  0-V ,  4-S ) :   0.7887 B(  0-V ,  5-O ) :   2.1083 B(  1-S ,  8-C ) :   1.1350
B(  2-S ,  6-C ) :   1.1361 B(  3-S ,  9-C ) :   1.1383 B(  4-S ,  7-C ) :   1.1384
B(  6-C ,  7-C ) :   1.5176 B(  6-C , 10-S ) :   0.9541 B(  7-C , 11-S ) :   0.9531
B(  8-C ,  9-C ) :   1.5015 B(  8-C , 13-S ) :   0.9561 B(  9-C , 12-S ) :   0.9521
B( 10-S , 16-C ) :   1.0041 B( 11-S , 14-C ) :   1.0063 B( 12-S , 15-C ) :   1.0203
B( 13-S , 17-C ) :   1.0323 B( 14-C , 18-C ) :   0.8762 B( 14-C , 23-H ) :   0.9702
B( 14-C , 24-H ) :   0.9756 B( 15-C , 25-C ) :   0.8671 B( 15-C , 30-H ) :   0.9693
B( 15-C , 31-H ) :   0.9644 B( 16-C , 18-C ) :   0.8802 B( 16-C , 19-H ) :   0.9747
B( 16-C , 20-H ) :   0.9698 B( 17-C , 25-C ) :   0.9112 B( 17-C , 26-H ) :   0.9574
B( 17-C , 27-H ) :   0.9496 B( 18-C , 21-H ) :   0.9526 B( 18-C , 22-H ) :   0.9738
B( 25-C , 28-H ) :   0.9759 B( 25-C , 29-H ) :   0.9497

FINAL SINGLE POINT ENERGY     -4592.683396154181

DIPOLE MOMENT
-------------
                                X             Y             Z
Electronic contribution:     19.99822      -4.32906      17.18445
Nuclear contribution   :    -22.29753       4.84473     -19.10194
                        -----------------------------------------
Total Dipole Moment    :     -2.29931       0.51567      -1.91749
                        -----------------------------------------
Magnitude (a.u.)       :      3.03801
Magnitude (Debye)      :      7.72202

Rotational constants in cm-1:     0.012770     0.002548     0.002431
Rotational constants in MHz :   382.822555    76.397567    72.881683

                             ****ORCA TERMINATED NORMALLY****
TOTAL RUN TIME: 0 days 0 hours 27 minutes 39 seconds 397 msec
