                         Program Version 5.0.4 -  RELEASE  -
|  1> ! nofrozencore ReducedPop printbasis
|  2> ! B3LYP TZVP
|  3>
|  4> %basis
|  5> newgto V "CP(PPP)" end
|  6> end
|  7>
|  8> %pal
|  9> nprocs 4
| 10> end
| 11>
| 12> % sym SymThresh 1e-2 end
| 13> * xyz -2 2
| 14> V 0.5956700288343124 -0.9221309189078781 0.1974380890143572
| 15> S -1.7165708680574108 -1.609168786112749 -0.2340136729937959
| 16> S 0.7155953018284243 -0.4455466612708889 -2.201642112096662
| 17> S -0.329100184848177 -0.1501069452089989 2.33024043377672
| 18> S 2.1214570910557016 0.9887267046431517 0.3666495862972892
| 19> O 1.4435108399161505 -2.245062692275632 0.48072058125865547
| 20> C 2.1142731494006286 0.624349191362912 -2.3580376161681618
| 21> C 2.7000087333518876 1.2233552416032791 -1.2876520543902052
| 22> C -2.4782378948558073 -1.5576783879204106 1.3582851124463253
| 23> C -1.9017313304854437 -0.9562002084040263 2.43249892649106
| 24> S 2.684267820170881 0.8816868164435101 -4.050925155601714
| 25> S 4.104663769186129 2.3436178917464034 -1.4463441905904904
| 26> S -2.6921499665184383 -0.872470699184778 4.044553207890928
| 27> S -4.104317781208624 -2.351234690096816 1.444400499717802
| 28> C 3.3793152169426186 3.7963367175484386 -2.3236073024968324
| 29> C -4.097997983571138 0.2529502694530305 3.7587405993406255
| 30> C 2.272757914115859 2.656442383190309 -4.362522196474755
| 31> C -5.250669529916189 -0.9062691907861751 1.7546619013004938
| 32> C 3.276383474150265 3.6808116877747166 -3.8488156794838946
| 33> H 1.2788056569338342 2.823741080226972 -3.942685022954362
| 34> H 2.1920110597671383 2.7134687961424566 -5.45262132370842
| 35> H 2.993983669045633 4.678272289411336 -4.22376654528444
| 36> H 4.261775469247252 3.4499260283570163 -4.2678833225059165
| 37> H 4.02671195676629 4.6463924353277 -2.0839522862287234
| 38> H 2.3981150170512864 3.9930528158160308 -1.8854512111679718
| 39> C -5.395724357884026 -0.44387941622303023 3.123568253483749
| 40> H -6.051241550201804 -1.5084880786638621 1.1879821216875537
| 41> H -4.8217823353281775 -0.2130780496551234 1.0154215506642108
| 42> H -5.760987918196523 -1.348462209515465 3.644324138843764
| 43> H -6.055912628171136 0.46017661934371357 3.446609519987978
| 44> H -3.905605584898608 1.121247201687617 3.0961839447283306
| 45> H -4.686372644631605 0.7398928520433381 4.629813075924096
| 46> *
| 47>
| 48> % eprnmr
| 49> gtensor true
| 50> Nuclei = all H {aiso,adip,aorb,fgrad,rho}
| 51> Nuclei = all V {aiso,adip,aorb,fgrad,rho}
| 52> end
| 53>
| 54>                          ****END OF INPUT****

CARTESIAN COORDINATES (ANGSTROEM)
---------------------------------
  V      0.596359   -0.923084    0.197595
  S     -1.715882   -1.610122   -0.233857
  S      0.716284   -0.446500   -2.201485
  S     -0.328411   -0.151060    2.330397
  S      2.122146    0.987773    0.366806
  O      1.444200   -2.246016    0.480877
  C      2.114962    0.623396   -2.357881
  C      2.700698    1.222402   -1.287495
  C     -2.477549   -1.558632    1.358442
  C     -1.901042   -0.957154    2.432656
  S      2.684957    0.880733   -4.050768
  S      4.105353    2.342664   -1.446187
  S     -2.691461   -0.873424    4.044710
  S     -4.103629   -2.352188    1.444557
  C      3.380004    3.795383   -2.323451
  C     -4.097309    0.251997    3.758897
  C      2.273447    2.655489   -4.362365
  C     -5.249980   -0.907223    1.754819
  C      3.277073    3.679858   -3.848659
  H      1.279495    2.822788   -3.942528
  H      2.192700    2.712515   -5.452465
  H      2.994673    4.677319   -4.223610
  H      4.262465    3.448973   -4.267727
  H      4.027401    4.645439   -2.083795
  H      2.398804    3.992099   -1.885294
  C     -5.395035   -0.444833    3.123725
  H     -6.050552   -1.509442    1.188139
  H     -4.821093   -0.214032    1.015578
  H     -5.760299   -1.349416    3.644481
  H     -6.055224    0.459223    3.446766
  H     -3.904916    1.120294    3.096341
  H     -4.685684    0.738939    4.629970

 Total Charge           Charge          ....   -2
 Multiplicity           Mult            ....    2
 Number of Electrons    NEL             ....  233
 Basis Dimension        Dim             ....  517

ORBITAL ENERGIES
----------------
                 SPIN UP ORBITALS
  NO   OCC          E(Eh)            E(eV)
   0   1.0000    -196.641364     -5350.8836
   1   1.0000     -88.681635     -2413.1500
   2   1.0000     -88.678458     -2413.0635
   3   1.0000     -88.677326     -2413.0327
   4   1.0000     -88.677038     -2413.0249
   5   1.0000     -88.615109     -2411.3397
   6   1.0000     -88.613046     -2411.2836
   7   1.0000     -88.612758     -2411.2757
   8   1.0000     -88.612455     -2411.2675
   9   1.0000     -22.017172      -599.1177
  10   1.0000     -18.858433      -513.1640
  11   1.0000     -18.523992      -504.0634
  12   1.0000     -18.518225      -503.9065
  13   1.0000     -18.518184      -503.9054
  14   1.0000     -10.028898      -272.9002
  15   1.0000     -10.018307      -272.6120
  16   1.0000     -10.016331      -272.5582
  17   1.0000     -10.015675      -272.5404
  18   1.0000     -10.012829      -272.4629
  19   1.0000     -10.005253      -272.2568
  20   1.0000      -9.993900      -271.9478
  21   1.0000      -9.992674      -271.9145
  22   1.0000      -9.992657      -271.9140
  23   1.0000      -9.991944      -271.8946
  24   1.0000      -7.735154      -210.4842
  25   1.0000      -7.732063      -210.4001
  26   1.0000      -7.730965      -210.3703
  27   1.0000      -7.730692      -210.3628
  28   1.0000      -7.669519      -208.6982
  29   1.0000      -7.667492      -208.6431
  30   1.0000      -7.667175      -208.6344
  31   1.0000      -7.666885      -208.6266
  32   1.0000      -5.700515      -155.1189
  33   1.0000      -5.697322      -155.0320
  34   1.0000      -5.696488      -155.0093
  35   1.0000      -5.696216      -155.0019
  36   1.0000      -5.695935      -154.9943
  37   1.0000      -5.693337      -154.9236
  38   1.0000      -5.692318      -154.8958
  39   1.0000      -5.692042      -154.8883
  40   1.0000      -5.689808      -154.8276
  41   1.0000      -5.686826      -154.7464
  42   1.0000      -5.685712      -154.7161
  43   1.0000      -5.685446      -154.7088
  44   1.0000      -5.634364      -153.3188
  45   1.0000      -5.632328      -153.2634
  46   1.0000      -5.632016      -153.2549
  47   1.0000      -5.631740      -153.2474
  48   1.0000      -5.627913      -153.1433
  49   1.0000      -5.627547      -153.1333
  50   1.0000      -5.625933      -153.0894
  51   1.0000      -5.625621      -153.0809
  52   1.0000      -5.625482      -153.0771
  53   1.0000      -5.625318      -153.0727
  54   1.0000      -5.625160      -153.0684
  55   1.0000      -5.624846      -153.0598
  56   1.0000      -2.410868       -65.6030
  57   1.0000      -1.452225       -39.5171
  58   1.0000      -1.440659       -39.2023
  59   1.0000      -1.439568       -39.1726
  60   1.0000      -0.646171       -17.5832
  61   1.0000      -0.644404       -17.5351
  62   1.0000      -0.619435       -16.8557
  63   1.0000      -0.595775       -16.2119
  64   1.0000      -0.594364       -16.1735
  65   1.0000      -0.577534       -15.7155
  66   1.0000      -0.576421       -15.6852
  67   1.0000      -0.494773       -13.4635
  68   1.0000      -0.491167       -13.3653
  69   1.0000      -0.487921       -13.2770
  70   1.0000      -0.485856       -13.2208
  71   1.0000      -0.425201       -11.5703
  72   1.0000      -0.421738       -11.4761
  73   1.0000      -0.412543       -11.2259
  74   1.0000      -0.406444       -11.0599
  75   1.0000      -0.376054       -10.2329
  76   1.0000      -0.372216       -10.1285
  77   1.0000      -0.293406        -7.9840
  78   1.0000      -0.291653        -7.9363
  79   1.0000      -0.284567        -7.7435
  80   1.0000      -0.278313        -7.5733
  81   1.0000      -0.260817        -7.0972
  82   1.0000      -0.256369        -6.9762
  83   1.0000      -0.241545        -6.5728
  84   1.0000      -0.230634        -6.2759
  85   1.0000      -0.195734        -5.3262
  86   1.0000      -0.194358        -5.2888
  87   1.0000      -0.192776        -5.2457
  88   1.0000      -0.190885        -5.1942
  89   1.0000      -0.185048        -5.0354
  90   1.0000      -0.182169        -4.9571
  91   1.0000      -0.164417        -4.4740
  92   1.0000      -0.152075        -4.1382
  93   1.0000      -0.150003        -4.0818
  94   1.0000      -0.145248        -3.9524
  95   1.0000      -0.143500        -3.9048
  96   1.0000      -0.138686        -3.7738
  97   1.0000      -0.098420        -2.6782
  98   1.0000      -0.096875        -2.6361
  99   1.0000      -0.089949        -2.4476
 100   1.0000      -0.084244        -2.2924
 101   1.0000      -0.081474        -2.2170
 102   1.0000      -0.081054        -2.2056
 103   1.0000      -0.070630        -1.9219
 104   1.0000      -0.051155        -1.3920
 105   1.0000      -0.039818        -1.0835
 106   1.0000      -0.038829        -1.0566
 107   1.0000      -0.036913        -1.0044
 108   1.0000      -0.032908        -0.8955
 109   1.0000      -0.014413        -0.3922
 110   1.0000      -0.005606        -0.1525
 111   1.0000      -0.004370        -0.1189
 112   1.0000       0.004824         0.1313
 113   1.0000       0.009384         0.2553
 114   1.0000       0.015010         0.4084
 115   1.0000       0.032398         0.8816
 116   1.0000       0.058533         1.5928
 117   0.0000       0.176376         4.7994
 118   0.0000       0.190864         5.1937
 119   0.0000       0.195947         5.3320
 120   0.0000       0.196657         5.3513
 121   0.0000       0.209887         5.7113

                 SPIN DOWN ORBITALS
  NO   OCC          E(Eh)            E(eV)
   0   1.0000    -196.641505     -5350.8874
   1   1.0000     -88.681647     -2413.1503
   2   1.0000     -88.678471     -2413.0639
   3   1.0000     -88.677340     -2413.0331
   4   1.0000     -88.677051     -2413.0252
   5   1.0000     -88.615265     -2411.3440
   6   1.0000     -88.613206     -2411.2879
   7   1.0000     -88.612918     -2411.2801
   8   1.0000     -88.612616     -2411.2719
   9   1.0000     -22.002501      -598.7185
  10   1.0000     -18.862021      -513.2617
  11   1.0000     -18.518859      -503.9238
  12   1.0000     -18.502731      -503.4849
  13   1.0000     -18.502051      -503.4664
  14   1.0000     -10.028895      -272.9001
  15   1.0000     -10.018303      -272.6119
  16   1.0000     -10.016328      -272.5581
  17   1.0000     -10.015671      -272.5403
  18   1.0000     -10.012829      -272.4629
  19   1.0000     -10.005253      -272.2568
  20   1.0000      -9.993645      -271.9409
  21   1.0000      -9.992420      -271.9076
  22   1.0000      -9.992402      -271.9071
  23   1.0000      -9.991691      -271.8877
  24   1.0000      -7.735167      -210.4846
  25   1.0000      -7.732077      -210.4005
  26   1.0000      -7.730979      -210.3706
  27   1.0000      -7.730706      -210.3632
  28   1.0000      -7.669664      -208.7022
  29   1.0000      -7.667640      -208.6471
  30   1.0000      -7.667325      -208.6385
  31   1.0000      -7.667035      -208.6306
  32   1.0000      -5.700530      -155.1193
  33   1.0000      -5.697339      -155.0325
  34   1.0000      -5.696508      -155.0099
  35   1.0000      -5.696233      -155.0024
  36   1.0000      -5.695952      -154.9947
  37   1.0000      -5.693358      -154.9241
  38   1.0000      -5.692338      -154.8964
  39   1.0000      -5.692062      -154.8889
  40   1.0000      -5.689824      -154.8280
  41   1.0000      -5.686844      -154.7469
  42   1.0000      -5.685729      -154.7165
  43   1.0000      -5.685462      -154.7093
  44   1.0000      -5.634532      -153.3234
  45   1.0000      -5.632500      -153.2681
  46   1.0000      -5.632188      -153.2596
  47   1.0000      -5.631913      -153.2522
  48   1.0000      -5.628294      -153.1537
  49   1.0000      -5.627683      -153.1370
  50   1.0000      -5.626324      -153.1001
  51   1.0000      -5.626015      -153.0916
  52   1.0000      -5.625714      -153.0834
  53   1.0000      -5.625617      -153.0808
  54   1.0000      -5.625295      -153.0721
  55   1.0000      -5.624980      -153.0635
  56   1.0000      -2.366681       -64.4007
  57   1.0000      -1.433386       -39.0044
  58   1.0000      -1.379242       -37.5311
  59   1.0000      -1.378590       -37.5133
  60   1.0000      -0.646121       -17.5818
  61   1.0000      -0.644355       -17.5338
  62   1.0000      -0.627123       -17.0649
  63   1.0000      -0.595585       -16.2067
  64   1.0000      -0.594163       -16.1680
  65   1.0000      -0.577525       -15.7152
  66   1.0000      -0.576416       -15.6851
  67   1.0000      -0.494788       -13.4639
  68   1.0000      -0.491199       -13.3662
  69   1.0000      -0.487932       -13.2773
  70   1.0000      -0.485885       -13.2216
  71   1.0000      -0.425437       -11.5767
  72   1.0000      -0.422040       -11.4843
  73   1.0000      -0.412555       -11.2262
  74   1.0000      -0.406539       -11.0625
  75   1.0000      -0.376024       -10.2321
  76   1.0000      -0.372230       -10.1289
  77   1.0000      -0.293388        -7.9835
  78   1.0000      -0.291637        -7.9358
  79   1.0000      -0.284530        -7.7424
  80   1.0000      -0.278294        -7.5728
  81   1.0000      -0.260638        -7.0923
  82   1.0000      -0.256332        -6.9751
  83   1.0000      -0.241449        -6.5702
  84   1.0000      -0.230514        -6.2726
  85   1.0000      -0.195437        -5.3181
  86   1.0000      -0.194250        -5.2858
  87   1.0000      -0.192718        -5.2441
  88   1.0000      -0.190803        -5.1920
  89   1.0000      -0.184991        -5.0339
  90   1.0000      -0.180094        -4.9006
  91   1.0000      -0.164258        -4.4697
  92   1.0000      -0.151525        -4.1232
  93   1.0000      -0.149608        -4.0710
  94   1.0000      -0.145022        -3.9462
  95   1.0000      -0.143283        -3.8989
  96   1.0000      -0.138522        -3.7694
  97   1.0000      -0.097104        -2.6423
  98   1.0000      -0.096192        -2.6175
  99   1.0000      -0.090132        -2.4526
 100   1.0000      -0.084151        -2.2899
 101   1.0000      -0.083291        -2.2665
 102   1.0000      -0.080821        -2.1993
 103   1.0000      -0.071826        -1.9545
 104   1.0000      -0.047064        -1.2807
 105   1.0000      -0.039762        -1.0820
 106   1.0000      -0.038286        -1.0418
 107   1.0000      -0.035916        -0.9773
 108   1.0000      -0.032825        -0.8932
 109   1.0000      -0.013497        -0.3673
 110   1.0000      -0.006938        -0.1888
 111   1.0000      -0.003386        -0.0922
 112   1.0000       0.005655         0.1539
 113   1.0000       0.010277         0.2796
 114   1.0000       0.032656         0.8886
 115   1.0000       0.057742         1.5712
 116   0.0000       0.176688         4.8079
 117   0.0000       0.184045         5.0081
 118   0.0000       0.191771         5.2184
 119   0.0000       0.196094         5.3360
 120   0.0000       0.197287         5.3685

MULLIKEN ATOMIC CHARGES AND SPIN POPULATIONS
--------------------------------------------
   0 V :    0.447562    1.199401
   1 S :   -0.250999   -0.023617
   2 S :   -0.254523   -0.024195
   3 S :   -0.253235   -0.024282
   4 S :   -0.252551   -0.024231
   5 O :   -0.505803   -0.139048
   6 C :   -0.118429    0.008900
   7 C :   -0.114162    0.008841
   8 C :   -0.134399    0.009075
   9 C :   -0.100199    0.008623
  10 S :   -0.045953   -0.000169
  11 S :   -0.042437   -0.000199
  12 S :   -0.018823   -0.000059
  13 S :   -0.066357   -0.000332
  14 C :   -0.339922    0.000288
  15 C :   -0.319993    0.000387
  16 C :   -0.337341    0.000265
  17 C :   -0.315201    0.000287
  18 C :   -0.083808    0.000138
  19 H :    0.147220   -0.000100
  20 H :    0.102115    0.000022
  21 H :    0.044761    0.000039
  22 H :    0.078708    0.000017
  23 H :    0.101883    0.000020
  24 H :    0.147088   -0.000103
  25 C :   -0.065442    0.000081
  26 H :    0.082225    0.000058
  27 H :    0.153005   -0.000092
  28 H :    0.072095    0.000003
  29 H :    0.024499    0.000075
  30 H :    0.147210   -0.000087
  31 H :    0.071207   -0.000005
Sum of atomic charges         :   -2.0000000

LOEWDIN ATOMIC CHARGES AND SPIN POPULATIONS
-------------------------------------------
   0 V :   -0.242404    1.153369
   1 S :    0.092885   -0.015934
   2 S :    0.087906   -0.016347
   3 S :    0.087380   -0.016490
   4 S :    0.088641   -0.016469
   5 O :   -0.350362   -0.124481
   6 C :   -0.553032    0.010006
   7 C :   -0.552786    0.009939
   8 C :   -0.549651    0.009989
   9 C :   -0.557348    0.009973
  10 S :    0.336027   -0.001025
  11 S :    0.338030   -0.001049
  12 S :    0.356873   -0.000953
  13 S :    0.326088   -0.001122
  14 C :   -0.294344    0.000163
  15 C :   -0.316865    0.000172
  16 C :   -0.293040    0.000156
  17 C :   -0.297827    0.000183
  18 C :   -0.184871   -0.000036
  19 H :    0.065889   -0.000026
  20 H :    0.047278    0.000006
  21 H :    0.046924    0.000017
  22 H :    0.053474    0.000013
  23 H :    0.047580    0.000004
  24 H :    0.066078   -0.000028
  25 C :   -0.200086   -0.000047
  26 H :    0.053855    0.000042
  27 H :    0.066564   -0.000020
  28 H :    0.056543    0.000008
  29 H :    0.052790    0.000030
  30 H :    0.067773   -0.000029
  31 H :    0.054041   -0.000012

  Mayer bond orders larger than 0.100000
B(  0-V ,  1-S ) :   0.7809 B(  0-V ,  2-S ) :   0.7911 B(  0-V ,  3-S ) :   0.7938
B(  0-V ,  4-S ) :   0.7903 B(  0-V ,  5-O ) :   2.1087 B(  1-S ,  8-C ) :   1.1469
B(  2-S ,  6-C ) :   1.1363 B(  3-S ,  9-C ) :   1.1284 B(  4-S ,  7-C ) :   1.1378
B(  6-C ,  7-C ) :   1.5175 B(  6-C , 10-S ) :   0.9547 B(  7-C , 11-S ) :   0.9536
B(  8-C ,  9-C ) :   1.5015 B(  8-C , 13-S ) :   0.9590 B(  9-C , 12-S ) :   0.9522
B( 10-S , 16-C ) :   1.0034 B( 11-S , 14-C ) :   1.0061 B( 12-S , 15-C ) :   1.0029
B( 13-S , 17-C ) :   0.9538 B( 14-C , 18-C ) :   0.8746 B( 14-C , 23-H ) :   0.9695
B( 14-C , 24-H ) :   0.9750 B( 15-C , 25-C ) :   0.8205 B( 15-C , 30-H ) :   0.9669
B( 15-C , 31-H ) :   0.9583 B( 16-C , 18-C ) :   0.8811 B( 16-C , 19-H ) :   0.9755
B( 16-C , 20-H ) :   0.9706 B( 17-C , 25-C ) :   0.9190 B( 17-C , 26-H ) :   0.9709
B( 17-C , 27-H ) :   0.9804 B( 18-C , 21-H ) :   0.9528 B( 18-C , 22-H ) :   0.9737
B( 25-C , 28-H ) :   0.9633 B( 25-C , 29-H ) :   0.9530

FINAL SINGLE POINT ENERGY     -4592.674561264712

DIPOLE MOMENT
-------------
                                X             Y             Z
Electronic contribution:     14.55305     -22.04233       4.78162
Nuclear contribution   :    -16.00793      24.48281      -5.44911
                        -----------------------------------------
Total Dipole Moment    :     -1.45488       2.44049      -0.66750
                        -----------------------------------------
Magnitude (a.u.)       :      2.91860
Magnitude (Debye)      :      7.41848

Rotational constants in cm-1:     0.012768     0.002548     0.002431
Rotational constants in MHz :   382.760445    76.396643    72.880787

                             ****ORCA TERMINATED NORMALLY****
TOTAL RUN TIME: 0 days 0 hours 43 minutes 30 seconds 904 msec
