                         Program Version 5.0.4 -  RELEASE  -
|  1> ! nofrozencore ReducedPop printbasis
|  2> ! B3LYP TZVP
|  3>
|  4> %basis
|  5> newgto V "CP(PPP)" end
|  6> end
|  7>
|  8> %pal
|  9> nprocs 8
| 10> end
| 11>
| 12> % sym SymThresh 1e-2 end
| 13> * xyz -2 2
| 14> V 0.4185559827212721 -0.8981779703266195 -0.5302210519916993
| 15> S -2.0286308630292162 -1.0537608072500193 -0.6043123713661028
| 16> S 0.17251276030775634 0.909228347659218 -2.1679764614333075
| 17> S 0.09771285486037865 -1.4852873407915013 1.8287263973398387
| 18> S 2.3114886588675962 0.4541056657082585 0.2490602929696716
| 19> O 0.9948900294433815 -2.149171631318866 -1.2671773856778503
| 20> C 1.7102149163221134 1.7739383046405577 -2.085660344863547
| 21> C 2.6023866814732104 1.5847014362139993 -1.0755752585612666
| 22> C -2.4453674746451277 -1.9182710871257882 0.8798125210378378
| 23> C -1.5591187312198538 -2.09843374711563 1.8942975355079912
| 24> S 1.9803436111609758 2.9588763845324846 -3.409819699278523
| 25> S 4.142160919898395 2.5047304927622616 -0.9574156445256106
| 26> S -1.9914751823026156 -2.9473278205459152 3.426864620392061
| 27> S -4.1487200033362255 -2.5100888292860497 0.9577490199197544
| 28> C 3.6349036996199224 4.2573955546151 -0.6856635799267566
| 29> C -3.206411586739757 -1.7968748114612894 4.207838200604912
| 30> C 1.9595858544454476 4.610770979526774 -2.5892470615493632
| 31> C -4.892987481512558 -1.4560798581171301 2.278211180371344
| 32> C 3.1186093097798158 5.04440883520107 -1.8073312642949664
| 33> H 1.1132568748445086 4.306271843351163 -1.921257383775117
| 34> H 1.61323103334919 5.442135215457392 -3.2390554142718258
| 35> H 3.1370200658896406 6.150219535229677 -1.618772630571383
| 36> H 3.9288723575433124 4.863284608783786 -2.5543635235975684
| 37> H 4.365409124126079 4.862162116242894 -0.10789425428721053
| 38> H 2.8080199901325287 3.9470089655282634 0.0034954891809543033
| 39> C -4.648621017696451 -1.9048074396592478 3.717341402927445
| 40> H -5.967782790981289 -1.4655315235197306 2.0713810197101603
| 41> H -4.530983207790803 -0.4386285033549223 2.115462410183262
| 42> H -4.989031634298048 -2.93969024881774 3.8322521855030933
| 43> H -5.278169897740516 -1.28568304362869 4.3767420230053
| 44> H -2.818877837352526 -0.7848517099115369 4.07232196684492
| 45> H -3.166671292844375 -2.029908960946798 5.276549972031462
| 46> *
| 47>
| 48> % eprnmr
| 49> gtensor true
| 50> Nuclei = all H {aiso,adip,aorb,fgrad,rho}
| 51> Nuclei = all V {aiso,adip,aorb,fgrad,rho}
| 52> end
| 53>
| 54>                          ****END OF INPUT****

CARTESIAN COORDINATES (ANGSTROEM)
---------------------------------
  V      0.419046   -0.899076   -0.530823
  S     -2.028140   -1.054659   -0.604914
  S      0.173003    0.908330   -2.168578
  S      0.098203   -1.486185    1.828125
  S      2.311979    0.453208    0.248459
  O      0.995381   -2.150070   -1.267779
  C      1.710705    1.773040   -2.086262
  C      2.602877    1.583803   -1.076177
  C     -2.444877   -1.919169    0.879211
  C     -1.558628   -2.099332    1.893696
  S      1.980834    2.957978   -3.410421
  S      4.142651    2.503833   -0.958017
  S     -1.990985   -2.948226    3.426263
  S     -4.148230   -2.510987    0.957148
  C      3.635394    4.256498   -0.686265
  C     -3.205921   -1.797773    4.207237
  C      1.960076    4.609873   -2.589849
  C     -4.892497   -1.456978    2.277610
  C      3.119100    5.043511   -1.807933
  H      1.113747    4.305374   -1.921859
  H      1.613722    5.441237   -3.239657
  H      3.137511    6.149322   -1.619374
  H      3.929363    4.862387   -2.554965
  H      4.365900    4.861264   -0.108496
  H      2.808510    3.946111    0.002894
  C     -4.648131   -1.905705    3.716740
  H     -5.967292   -1.466429    2.070780
  H     -4.530493   -0.439526    2.114861
  H     -4.988541   -2.940588    3.831651
  H     -5.277679   -1.286581    4.376141
  H     -2.818387   -0.785750    4.071720
  H     -3.166181   -2.030807    5.275948

 Total Charge           Charge          ....   -2
 Multiplicity           Mult            ....    2
 Number of Electrons    NEL             ....  233
 Basis Dimension        Dim             ....  517

ORBITAL ENERGIES
----------------
                 SPIN UP ORBITALS
  NO   OCC          E(Eh)            E(eV)
   0   1.0000    -196.638521     -5350.8062
   1   1.0000     -88.676973     -2413.0231
   2   1.0000     -88.676906     -2413.0213
   3   1.0000     -88.676891     -2413.0209
   4   1.0000     -88.676879     -2413.0206
   5   1.0000     -88.613988     -2411.3092
   6   1.0000     -88.613957     -2411.3084
   7   1.0000     -88.612428     -2411.2668
   8   1.0000     -88.612358     -2411.2648
   9   1.0000     -22.014407      -599.0425
  10   1.0000     -18.863942      -513.3139
  11   1.0000     -18.521251      -503.9889
  12   1.0000     -18.515432      -503.8305
  13   1.0000     -18.515373      -503.8289
  14   1.0000     -10.015656      -272.5399
  15   1.0000     -10.015645      -272.5396
  16   1.0000     -10.013811      -272.4897
  17   1.0000     -10.013781      -272.4888
  18   1.0000     -10.004883      -272.2467
  19   1.0000      -9.999268      -272.0939
  20   1.0000      -9.994489      -271.9639
  21   1.0000      -9.993775      -271.9444
  22   1.0000      -9.992423      -271.9077
  23   1.0000      -9.991707      -271.8882
  24   1.0000      -7.730711      -210.3633
  25   1.0000      -7.730642      -210.3615
  26   1.0000      -7.730558      -210.3592
  27   1.0000      -7.730549      -210.3589
  28   1.0000      -7.668443      -208.6689
  29   1.0000      -7.668419      -208.6683
  30   1.0000      -7.666887      -208.6266
  31   1.0000      -7.666825      -208.6249
  32   1.0000      -5.695931      -154.9942
  33   1.0000      -5.695862      -154.9923
  34   1.0000      -5.695800      -154.9906
  35   1.0000      -5.695794      -154.9904
  36   1.0000      -5.692011      -154.8875
  37   1.0000      -5.691947      -154.8857
  38   1.0000      -5.691907      -154.8847
  39   1.0000      -5.691901      -154.8845
  40   1.0000      -5.685464      -154.7093
  41   1.0000      -5.685393      -154.7074
  42   1.0000      -5.685303      -154.7050
  43   1.0000      -5.685300      -154.7049
  44   1.0000      -5.633308      -153.2901
  45   1.0000      -5.633281      -153.2894
  46   1.0000      -5.631733      -153.2473
  47   1.0000      -5.631676      -153.2457
  48   1.0000      -5.626860      -153.1147
  49   1.0000      -5.626847      -153.1143
  50   1.0000      -5.626427      -153.1029
  51   1.0000      -5.626391      -153.1019
  52   1.0000      -5.625340      -153.0733
  53   1.0000      -5.625281      -153.0717
  54   1.0000      -5.624847      -153.0599
  55   1.0000      -5.624787      -153.0582
  56   1.0000      -2.410149       -65.5835
  57   1.0000      -1.455560       -39.6078
  58   1.0000      -1.439249       -39.1640
  59   1.0000      -1.438193       -39.1352
  60   1.0000      -0.654996       -17.8233
  61   1.0000      -0.644364       -17.5340
  62   1.0000      -0.626386       -17.0448
  63   1.0000      -0.600246       -16.3335
  64   1.0000      -0.594232       -16.1699
  65   1.0000      -0.579986       -15.7822
  66   1.0000      -0.576346       -15.6832
  67   1.0000      -0.494367       -13.4524
  68   1.0000      -0.490889       -13.3578
  69   1.0000      -0.490541       -13.3483
  70   1.0000      -0.487440       -13.2639
  71   1.0000      -0.425349       -11.5743
  72   1.0000      -0.421539       -11.4707
  73   1.0000      -0.412287       -11.2189
  74   1.0000      -0.406101       -11.0506
  75   1.0000      -0.375462       -10.2168
  76   1.0000      -0.368852       -10.0370
  77   1.0000      -0.298062        -8.1107
  78   1.0000      -0.293151        -7.9770
  79   1.0000      -0.280773        -7.6402
  80   1.0000      -0.278260        -7.5718
  81   1.0000      -0.263565        -7.1720
  82   1.0000      -0.257502        -7.0070
  83   1.0000      -0.246199        -6.6994
  84   1.0000      -0.241088        -6.5603
  85   1.0000      -0.203975        -5.5504
  86   1.0000      -0.198554        -5.4029
  87   1.0000      -0.194209        -5.2847
  88   1.0000      -0.192781        -5.2458
  89   1.0000      -0.185236        -5.0405
  90   1.0000      -0.184500        -5.0205
  91   1.0000      -0.174590        -4.7508
  92   1.0000      -0.152536        -4.1507
  93   1.0000      -0.148669        -4.0455
  94   1.0000      -0.143192        -3.8964
  95   1.0000      -0.135959        -3.6996
  96   1.0000      -0.120665        -3.2834
  97   1.0000      -0.105334        -2.8663
  98   1.0000      -0.095663        -2.6031
  99   1.0000      -0.095460        -2.5976
 100   1.0000      -0.091433        -2.4880
 101   1.0000      -0.084296        -2.2938
 102   1.0000      -0.081295        -2.2121
 103   1.0000      -0.075843        -2.0638
 104   1.0000      -0.051285        -1.3955
 105   1.0000      -0.039580        -1.0770
 106   1.0000      -0.038974        -1.0605
 107   1.0000      -0.034987        -0.9521
 108   1.0000      -0.033432        -0.9097
 109   1.0000      -0.013951        -0.3796
 110   1.0000      -0.006204        -0.1688
 111   1.0000      -0.003372        -0.0918
 112   1.0000       0.004656         0.1267
 113   1.0000       0.009847         0.2680
 114   1.0000       0.015945         0.4339
 115   1.0000       0.032623         0.8877
 116   1.0000       0.058177         1.5831
 117   0.0000       0.186050         5.0627
 118   0.0000       0.194695         5.2979
 119   0.0000       0.194806         5.3009
 120   0.0000       0.196287         5.3412
 121   0.0000       0.214187         5.8283

                 SPIN DOWN ORBITALS
  NO   OCC          E(Eh)            E(eV)
   0   1.0000    -196.638667     -5350.8102
   1   1.0000     -88.676986     -2413.0235
   2   1.0000     -88.676918     -2413.0216
   3   1.0000     -88.676904     -2413.0212
   4   1.0000     -88.676892     -2413.0209
   5   1.0000     -88.614137     -2411.3133
   6   1.0000     -88.614107     -2411.3124
   7   1.0000     -88.612582     -2411.2709
   8   1.0000     -88.612512     -2411.2690
   9   1.0000     -21.999981      -598.6499
  10   1.0000     -18.867219      -513.4031
  11   1.0000     -18.516357      -503.8557
  12   1.0000     -18.500086      -503.4129
  13   1.0000     -18.499467      -503.3961
  14   1.0000     -10.015652      -272.5398
  15   1.0000     -10.015641      -272.5395
  16   1.0000     -10.013808      -272.4896
  17   1.0000     -10.013778      -272.4888
  18   1.0000     -10.004883      -272.2467
  19   1.0000      -9.999268      -272.0939
  20   1.0000      -9.994236      -271.9570
  21   1.0000      -9.993524      -271.9376
  22   1.0000      -9.992169      -271.9007
  23   1.0000      -9.991455      -271.8813
  24   1.0000      -7.730725      -210.3637
  25   1.0000      -7.730655      -210.3618
  26   1.0000      -7.730571      -210.3595
  27   1.0000      -7.730563      -210.3593
  28   1.0000      -7.668582      -208.6727
  29   1.0000      -7.668559      -208.6721
  30   1.0000      -7.667030      -208.6305
  31   1.0000      -7.666968      -208.6288
  32   1.0000      -5.695947      -154.9946
  33   1.0000      -5.695877      -154.9927
  34   1.0000      -5.695817      -154.9911
  35   1.0000      -5.695810      -154.9909
  36   1.0000      -5.692031      -154.8880
  37   1.0000      -5.691966      -154.8863
  38   1.0000      -5.691927      -154.8852
  39   1.0000      -5.691921      -154.8850
  40   1.0000      -5.685479      -154.7098
  41   1.0000      -5.685408      -154.7078
  42   1.0000      -5.685320      -154.7054
  43   1.0000      -5.685316      -154.7053
  44   1.0000      -5.633472      -153.2946
  45   1.0000      -5.633445      -153.2938
  46   1.0000      -5.631900      -153.2518
  47   1.0000      -5.631843      -153.2502
  48   1.0000      -5.627226      -153.1246
  49   1.0000      -5.627213      -153.1242
  50   1.0000      -5.626552      -153.1063
  51   1.0000      -5.626518      -153.1053
  52   1.0000      -5.625717      -153.0835
  53   1.0000      -5.625658      -153.0819
  54   1.0000      -5.624975      -153.0634
  55   1.0000      -5.624916      -153.0617
  56   1.0000      -2.366743       -64.4024
  57   1.0000      -1.437728       -39.1226
  58   1.0000      -1.378472       -37.5101
  59   1.0000      -1.377960       -37.4962
  60   1.0000      -0.654961       -17.8224
  61   1.0000      -0.644316       -17.5327
  62   1.0000      -0.632968       -17.2239
  63   1.0000      -0.600033       -16.3277
  64   1.0000      -0.594025       -16.1642
  65   1.0000      -0.579980       -15.7821
  66   1.0000      -0.576340       -15.6830
  67   1.0000      -0.494382       -13.4528
  68   1.0000      -0.490915       -13.3585
  69   1.0000      -0.490528       -13.3480
  70   1.0000      -0.487445       -13.2640
  71   1.0000      -0.425576       -11.5805
  72   1.0000      -0.421825       -11.4785
  73   1.0000      -0.412283       -11.2188
  74   1.0000      -0.406180       -11.0527
  75   1.0000      -0.375435       -10.2161
  76   1.0000      -0.368837       -10.0366
  77   1.0000      -0.298056        -8.1105
  78   1.0000      -0.293132        -7.9765
  79   1.0000      -0.280744        -7.6394
  80   1.0000      -0.278240        -7.5713
  81   1.0000      -0.263358        -7.1663
  82   1.0000      -0.257443        -7.0054
  83   1.0000      -0.246129        -6.6975
  84   1.0000      -0.241005        -6.5581
  85   1.0000      -0.203960        -5.5500
  86   1.0000      -0.198328        -5.3968
  87   1.0000      -0.193919        -5.2768
  88   1.0000      -0.192746        -5.2449
  89   1.0000      -0.185066        -5.0359
  90   1.0000      -0.182921        -4.9775
  91   1.0000      -0.174074        -4.7368
  92   1.0000      -0.151846        -4.1319
  93   1.0000      -0.148358        -4.0370
  94   1.0000      -0.142978        -3.8906
  95   1.0000      -0.135619        -3.6904
  96   1.0000      -0.120302        -3.2736
  97   1.0000      -0.103563        -2.8181
  98   1.0000      -0.095893        -2.6094
  99   1.0000      -0.095429        -2.5968
 100   1.0000      -0.092645        -2.5210
 101   1.0000      -0.084107        -2.2887
 102   1.0000      -0.080911        -2.2017
 103   1.0000      -0.076459        -2.0806
 104   1.0000      -0.047098        -1.2816
 105   1.0000      -0.039019        -1.0618
 106   1.0000      -0.038785        -1.0554
 107   1.0000      -0.034087        -0.9276
 108   1.0000      -0.033394        -0.9087
 109   1.0000      -0.012987        -0.3534
 110   1.0000      -0.007138        -0.1942
 111   1.0000      -0.002459        -0.0669
 112   1.0000       0.005518         0.1501
 113   1.0000       0.010750         0.2925
 114   1.0000       0.032835         0.8935
 115   1.0000       0.057510         1.5649
 116   0.0000       0.184249         5.0137
 117   0.0000       0.186997         5.0884
 118   0.0000       0.194766         5.2999
 119   0.0000       0.195253         5.3131
 120   0.0000       0.196436         5.3453

MULLIKEN ATOMIC CHARGES AND SPIN POPULATIONS
--------------------------------------------
   0 V :    0.456924    1.182005
   1 S :   -0.257184   -0.023245
   2 S :   -0.254167   -0.022360
   3 S :   -0.257525   -0.023206
   4 S :   -0.254502   -0.022202
   5 O :   -0.491443   -0.126684
   6 C :   -0.123126    0.008717
   7 C :   -0.121666    0.008712
   8 C :   -0.116561    0.008860
   9 C :   -0.116834    0.008816
  10 S :   -0.036427   -0.000107
  11 S :   -0.036365   -0.000142
  12 S :   -0.044728   -0.000174
  13 S :   -0.044945   -0.000201
  14 C :   -0.382748    0.000207
  15 C :   -0.338976    0.000310
  16 C :   -0.382697    0.000188
  17 C :   -0.337844    0.000333
  18 C :   -0.016703    0.000243
  19 H :    0.147202   -0.000105
  20 H :    0.105542    0.000022
  21 H :    0.055200    0.000125
  22 H :    0.058545   -0.000043
  23 H :    0.105563    0.000024
  24 H :    0.147448   -0.000106
  25 C :   -0.083571    0.000130
  26 H :    0.101901    0.000031
  27 H :    0.147215   -0.000113
  28 H :    0.078126    0.000010
  29 H :    0.044782    0.000036
  30 H :    0.147539   -0.000109
  31 H :    0.102024    0.000029
Sum of atomic charges         :   -2.0000000

LOEWDIN ATOMIC CHARGES AND SPIN POPULATIONS
-------------------------------------------
   0 V :   -0.249416    1.137212
   1 S :    0.085118   -0.015602
   2 S :    0.089980   -0.014919
   3 S :    0.084823   -0.015549
   4 S :    0.089849   -0.014832
   5 O :   -0.321918   -0.112461
   6 C :   -0.560098    0.009890
   7 C :   -0.559589    0.009851
   8 C :   -0.552857    0.009915
   9 C :   -0.553262    0.009930
  10 S :    0.342783   -0.000941
  11 S :    0.342694   -0.000963
  12 S :    0.336510   -0.001007
  13 S :    0.336447   -0.001020
  14 C :   -0.310754    0.000136
  15 C :   -0.293711    0.000164
  16 C :   -0.310880    0.000127
  17 C :   -0.293750    0.000174
  18 C :   -0.204748   -0.000040
  19 H :    0.067908   -0.000029
  20 H :    0.056819   -0.000002
  21 H :    0.054393    0.000024
  22 H :    0.056595    0.000015
  23 H :    0.056784   -0.000001
  24 H :    0.068019   -0.000029
  25 C :   -0.184967   -0.000037
  26 H :    0.047419    0.000010
  27 H :    0.065995   -0.000027
  28 H :    0.053414    0.000011
  29 H :    0.046923    0.000019
  30 H :    0.066057   -0.000027
  31 H :    0.047420    0.000009

  Mayer bond orders larger than 0.100000
B(  0-V ,  1-S ) :   0.7834 B(  0-V ,  2-S ) :   0.7802 B(  0-V ,  3-S ) :   0.7853
B(  0-V ,  4-S ) :   0.7777 B(  0-V ,  5-O ) :   2.1247 B(  1-S ,  8-C ) :   1.1386
B(  2-S ,  6-C ) :   1.1387 B(  3-S ,  9-C ) :   1.1376 B(  4-S ,  7-C ) :   1.1397
B(  6-C ,  7-C ) :   1.4732 B(  6-C , 10-S ) :   0.9709 B(  7-C , 11-S ) :   0.9708
B(  8-C ,  9-C ) :   1.5175 B(  8-C , 13-S ) :   0.9541 B(  9-C , 12-S ) :   0.9542
B( 10-S , 16-C ) :   0.9783 B( 11-S , 14-C ) :   0.9785 B( 12-S , 15-C ) :   1.0048
B( 13-S , 17-C ) :   1.0051 B( 14-C , 18-C ) :   0.8496 B( 14-C , 23-H ) :   0.9574
B( 14-C , 24-H ) :   1.0047 B( 15-C , 25-C ) :   0.8778 B( 15-C , 30-H ) :   0.9755
B( 15-C , 31-H ) :   0.9700 B( 16-C , 18-C ) :   0.8497 B( 16-C , 19-H ) :   1.0046
B( 16-C , 20-H ) :   0.9574 B( 17-C , 25-C ) :   0.8778 B( 17-C , 26-H ) :   0.9700
B( 17-C , 27-H ) :   0.9754 B( 18-C , 21-H ) :   0.9297 B( 18-C , 22-H ) :   0.9754
B( 25-C , 28-H ) :   0.9740 B( 25-C , 29-H ) :   0.9524

FINAL SINGLE POINT ENERGY     -4592.690189627758

DIPOLE MOMENT
-------------
                                X             Y             Z
Electronic contribution:      9.89347     -21.28268     -12.52239
Nuclear contribution   :    -11.11357      23.50064      13.99451
                        -----------------------------------------
Total Dipole Moment    :     -1.22009       2.21796       1.47212
                        -----------------------------------------
Magnitude (a.u.)       :      2.92833
Magnitude (Debye)      :      7.44323

Rotational constants in cm-1:     0.012811     0.002549     0.002432
Rotational constants in MHz :   384.061257    76.429439    72.911492

                             ****ORCA TERMINATED NORMALLY****
TOTAL RUN TIME: 0 days 0 hours 27 minutes 45 seconds 511 msec
