                         Program Version 5.0.4 -  RELEASE  -
|  1> ! nofrozencore ReducedPop printbasis
|  2> ! B3LYP TZVP
|  3>
|  4> %basis
|  5> newgto V "CP(PPP)" end
|  6> end
|  7>
|  8> %pal
|  9> nprocs 8
| 10> end
| 11>
| 12> % sym SymThresh 1e-2 end
| 13> * xyz -2 2
| 14> V 0.4044027697067178 1.01490208040576 0.2963340148794859
| 15> S 1.4010976345558692 -1.0118774428992343 1.7801182955243886
| 16> S 1.9348369346902172 -0.28507919403171156 -1.5177973467923156
| 17> S -1.3344667328914892 0.7544042007035607 1.6370142737180808
| 18> S -0.815680093647741 1.4751591781822464 -1.4981230951552316
| 19> O 1.4549556771251944 2.1719126573244383 0.7269431573810042
| 20> C 1.1390176208370975 0.43809545555089496 -2.943419552368682
| 21> C 0.04823501871296913 1.2542249038086077 -3.024220824740324
| 22> C 0.16263839705279645 -0.8921127002391854 3.056848706274003
| 23> C -0.95892354229229 -0.11848200428532933 3.125557794526145
| 24> S 2.0575671922794183 0.1277823260289794 -4.364137639525822
| 25> S -0.7073793293410957 1.9399731793634993 -4.618733072175986
| 26> S -2.2113428219566345 -0.10819493096342604 4.540447169835223
| 27> S 0.6232704238605212 -1.8168069299835057 4.4284706338085424
| 28> C -1.1771116747703445 0.34838308994269396 -5.470654602280731
| 29> C -2.801619491615862 -1.8757988545606825 4.476244505368748
| 30> C 1.0280677949697934 -0.998064912440806 -5.385084618179501
| 31> C -0.5805934625815127 -3.198963711847084 4.526938173811316
| 32> C -0.05386170019092105 -0.3465639580212119 -6.243176508861752
| 33> H 0.598482460084315 -1.7598231643202578 -4.723676857361038
| 34> H 1.7538495455848255 -1.4964716861547152 -6.041804846891297
| 35> H -0.5089904481636375 -1.133532921733599 -6.866693475421797
| 36> H 0.41091536009128443 0.3724495347967606 -6.92643430360187
| 37> H -1.9961890219126364 0.6067564508250242 -6.155498980773914
| 38> H -1.5793821020415135 -0.3088060865214905 -4.693128831339729
| 39> C -1.9188364209775717 -2.896727615434469 5.196613600844911
| 40> H -0.05290413890623793 -3.964431859642086 5.112521322934837
| 41> H -0.7276635485361819 -3.5960365664658114 3.5150776117301463
| 42> H -1.740461263313871 -2.556403719518747 6.2224440871355045
| 43> H -2.4821307085785693 -3.8417248083142828 5.265682735292626
| 44> H -2.904819632228914 -2.127581386553348 3.416273141320262
| 45> H -3.8044624972459826 -1.86970984493366 4.923444460455404
| 46> *
| 47>
| 48> % eprnmr
| 49> gtensor true
| 50> Nuclei = all H {aiso,adip,aorb,fgrad,rho}
| 51> Nuclei = all V {aiso,adip,aorb,fgrad,rho}
| 52> end
| 53>
| 54>                          ****END OF INPUT****

CARTESIAN COORDINATES (ANGSTROEM)
---------------------------------
  V      0.405022    1.015886    0.296571
  S      1.401717   -1.010893    1.780355
  S      1.935456   -0.284095   -1.517560
  S     -1.333847    0.755388    1.637251
  S     -0.815061    1.476143   -1.497886
  O      1.455575    2.172897    0.727180
  C      1.139637    0.439080   -2.943182
  C      0.048854    1.255209   -3.023984
  C      0.163258   -0.891129    3.057086
  C     -0.958304   -0.117498    3.125795
  S      2.058187    0.128766   -4.363901
  S     -0.706760    1.940957   -4.618496
  S     -2.210723   -0.107211    4.540684
  S      0.623890   -1.815823    4.428708
  C     -1.176492    0.349367   -5.470418
  C     -2.801000   -1.874815    4.476482
  C      1.028687   -0.997081   -5.384848
  C     -0.579974   -3.197980    4.527175
  C     -0.053242   -0.345580   -6.242939
  H      0.599102   -1.758839   -4.723440
  H      1.754469   -1.495488   -6.041568
  H     -0.508371   -1.132549   -6.866456
  H      0.411535    0.373434   -6.926197
  H     -1.995570    0.607741   -6.155262
  H     -1.578763   -0.307822   -4.692892
  C     -1.918217   -2.895743    5.196851
  H     -0.052285   -3.963448    5.112758
  H     -0.727044   -3.595052    3.515315
  H     -1.739842   -2.555420    6.222681
  H     -2.481511   -3.840741    5.265920
  H     -2.904200   -2.126597    3.416510
  H     -3.803843   -1.868726    4.923682

 Total Charge           Charge          ....   -2
 Multiplicity           Mult            ....    2
 Number of Electrons    NEL             ....  233
 Basis Dimension        Dim             ....  517

ORBITAL ENERGIES
----------------
                 SPIN UP ORBITALS
  NO   OCC          E(Eh)            E(eV)
   0   1.0000    -196.636492     -5350.7510
   1   1.0000     -88.689313     -2413.3589
   2   1.0000     -88.689243     -2413.3570
   3   1.0000     -88.664600     -2412.6864
   4   1.0000     -88.664569     -2412.6856
   5   1.0000     -88.612188     -2411.2602
   6   1.0000     -88.612004     -2411.2552
   7   1.0000     -88.611598     -2411.2442
   8   1.0000     -88.611448     -2411.2401
   9   1.0000     -22.012055      -598.9785
  10   1.0000     -18.849207      -512.9130
  11   1.0000     -18.518590      -503.9164
  12   1.0000     -18.513428      -503.7760
  13   1.0000     -18.513132      -503.7679
  14   1.0000     -10.020678      -272.6765
  15   1.0000     -10.020672      -272.6764
  16   1.0000     -10.012320      -272.4491
  17   1.0000     -10.012072      -272.4423
  18   1.0000     -10.004959      -272.2488
  19   1.0000     -10.004790      -272.2442
  20   1.0000      -9.997543      -272.0470
  21   1.0000      -9.997236      -272.0386
  22   1.0000      -9.989601      -271.8309
  23   1.0000      -9.989569      -271.8300
  24   1.0000      -7.740787      -210.6375
  25   1.0000      -7.740785      -210.6375
  26   1.0000      -7.720758      -210.0925
  27   1.0000      -7.720635      -210.0892
  28   1.0000      -7.669290      -208.6920
  29   1.0000      -7.668964      -208.6831
  30   1.0000      -7.664489      -208.5613
  31   1.0000      -7.664251      -208.5549
  32   1.0000      -5.706078      -155.2703
  33   1.0000      -5.706074      -155.2702
  34   1.0000      -5.702592      -155.1754
  35   1.0000      -5.702570      -155.1748
  36   1.0000      -5.695481      -154.9819
  37   1.0000      -5.695477      -154.9818
  38   1.0000      -5.685998      -154.7239
  39   1.0000      -5.685874      -154.7205
  40   1.0000      -5.681621      -154.6048
  41   1.0000      -5.681524      -154.6021
  42   1.0000      -5.675459      -154.4371
  43   1.0000      -5.675332      -154.4336
  44   1.0000      -5.633741      -153.3019
  45   1.0000      -5.633440      -153.2937
  46   1.0000      -5.629611      -153.1895
  47   1.0000      -5.629391      -153.1835
  48   1.0000      -5.627812      -153.1406
  49   1.0000      -5.627485      -153.1317
  50   1.0000      -5.627115      -153.1216
  51   1.0000      -5.626809      -153.1133
  52   1.0000      -5.623082      -153.0118
  53   1.0000      -5.622854      -153.0056
  54   1.0000      -5.622282      -152.9901
  55   1.0000      -5.622033      -152.9833
  56   1.0000      -2.406723       -65.4903
  57   1.0000      -1.446356       -39.3574
  58   1.0000      -1.437266       -39.1100
  59   1.0000      -1.436797       -39.0972
  60   1.0000      -0.644856       -17.5474
  61   1.0000      -0.644347       -17.5336
  62   1.0000      -0.609884       -16.5958
  63   1.0000      -0.598272       -16.2798
  64   1.0000      -0.597402       -16.2561
  65   1.0000      -0.573521       -15.6063
  66   1.0000      -0.573016       -15.5926
  67   1.0000      -0.497673       -13.5424
  68   1.0000      -0.495390       -13.4803
  69   1.0000      -0.483060       -13.1447
  70   1.0000      -0.481934       -13.1141
  71   1.0000      -0.422145       -11.4871
  72   1.0000      -0.419388       -11.4121
  73   1.0000      -0.412727       -11.2309
  74   1.0000      -0.407584       -11.0909
  75   1.0000      -0.376040       -10.2326
  76   1.0000      -0.372745       -10.1429
  77   1.0000      -0.292603        -7.9621
  78   1.0000      -0.292154        -7.9499
  79   1.0000      -0.278676        -7.5831
  80   1.0000      -0.278218        -7.5707
  81   1.0000      -0.260295        -7.0830
  82   1.0000      -0.255564        -6.9543
  83   1.0000      -0.242392        -6.5958
  84   1.0000      -0.239907        -6.5282
  85   1.0000      -0.195446        -5.3184
  86   1.0000      -0.192671        -5.2428
  87   1.0000      -0.192480        -5.2376
  88   1.0000      -0.190934        -5.1956
  89   1.0000      -0.184785        -5.0283
  90   1.0000      -0.184451        -5.0192
  91   1.0000      -0.181973        -4.9517
  92   1.0000      -0.155181        -4.2227
  93   1.0000      -0.150514        -4.0957
  94   1.0000      -0.145393        -3.9563
  95   1.0000      -0.144117        -3.9216
  96   1.0000      -0.142495        -3.8775
  97   1.0000      -0.098669        -2.6849
  98   1.0000      -0.093674        -2.5490
  99   1.0000      -0.087213        -2.3732
 100   1.0000      -0.086688        -2.3589
 101   1.0000      -0.078327        -2.1314
 102   1.0000      -0.068299        -1.8585
 103   1.0000      -0.060556        -1.6478
 104   1.0000      -0.052189        -1.4201
 105   1.0000      -0.040058        -1.0900
 106   1.0000      -0.037722        -1.0265
 107   1.0000      -0.036234        -0.9860
 108   1.0000      -0.032135        -0.8744
 109   1.0000      -0.018309        -0.4982
 110   1.0000      -0.009176        -0.2497
 111   1.0000       0.000587         0.0160
 112   1.0000       0.007174         0.1952
 113   1.0000       0.020047         0.5455
 114   1.0000       0.032120         0.8740
 115   1.0000       0.038931         1.0594
 116   1.0000       0.057702         1.5701
 117   0.0000       0.184596         5.0231
 118   0.0000       0.185429         5.0458
 119   0.0000       0.194117         5.2822
 120   0.0000       0.194268         5.2863
 121   0.0000       0.201487         5.4827

                 SPIN DOWN ORBITALS
  NO   OCC          E(Eh)            E(eV)
   0   1.0000    -196.636558     -5350.7528
   1   1.0000     -88.689337     -2413.3595
   2   1.0000     -88.689266     -2413.3576
   3   1.0000     -88.664602     -2412.6865
   4   1.0000     -88.664571     -2412.6856
   5   1.0000     -88.612252     -2411.2620
   6   1.0000     -88.612069     -2411.2570
   7   1.0000     -88.611782     -2411.2492
   8   1.0000     -88.611632     -2411.2451
   9   1.0000     -21.998070      -598.5979
  10   1.0000     -18.852507      -513.0028
  11   1.0000     -18.513531      -503.7788
  12   1.0000     -18.499121      -503.3867
  13   1.0000     -18.497387      -503.3395
  14   1.0000     -10.020674      -272.6764
  15   1.0000     -10.020668      -272.6763
  16   1.0000     -10.012319      -272.4490
  17   1.0000     -10.012072      -272.4423
  18   1.0000     -10.004957      -272.2487
  19   1.0000     -10.004788      -272.2441
  20   1.0000      -9.996899      -272.0294
  21   1.0000      -9.996582      -272.0208
  22   1.0000      -9.989576      -271.8302
  23   1.0000      -9.989546      -271.8294
  24   1.0000      -7.740811      -210.6382
  25   1.0000      -7.740810      -210.6381
  26   1.0000      -7.720762      -210.0926
  27   1.0000      -7.720638      -210.0893
  28   1.0000      -7.669342      -208.6934
  29   1.0000      -7.669018      -208.6846
  30   1.0000      -7.664661      -208.5660
  31   1.0000      -7.664424      -208.5596
  32   1.0000      -5.706112      -155.2712
  33   1.0000      -5.706108      -155.2711
  34   1.0000      -5.702628      -155.1764
  35   1.0000      -5.702606      -155.1758
  36   1.0000      -5.695509      -154.9827
  37   1.0000      -5.695504      -154.9826
  38   1.0000      -5.686003      -154.7240
  39   1.0000      -5.685879      -154.7206
  40   1.0000      -5.681627      -154.6049
  41   1.0000      -5.681530      -154.6023
  42   1.0000      -5.675453      -154.4369
  43   1.0000      -5.675326      -154.4335
  44   1.0000      -5.633919      -153.3067
  45   1.0000      -5.633618      -153.2985
  46   1.0000      -5.629747      -153.1932
  47   1.0000      -5.629527      -153.1872
  48   1.0000      -5.627977      -153.1450
  49   1.0000      -5.627638      -153.1358
  50   1.0000      -5.627058      -153.1200
  51   1.0000      -5.626772      -153.1122
  52   1.0000      -5.623569      -153.0251
  53   1.0000      -5.623345      -153.0190
  54   1.0000      -5.622458      -152.9949
  55   1.0000      -5.622207      -152.9880
  56   1.0000      -2.364588       -64.3437
  57   1.0000      -1.426873       -38.8272
  58   1.0000      -1.381552       -37.5940
  59   1.0000      -1.377657       -37.4880
  60   1.0000      -0.644780       -17.5454
  61   1.0000      -0.644275       -17.5316
  62   1.0000      -0.617025       -16.7901
  63   1.0000      -0.598115       -16.2755
  64   1.0000      -0.597220       -16.2512
  65   1.0000      -0.573372       -15.6022
  66   1.0000      -0.572872       -15.5886
  67   1.0000      -0.497192       -13.5293
  68   1.0000      -0.494958       -13.4685
  69   1.0000      -0.483202       -13.1486
  70   1.0000      -0.482075       -13.1179
  71   1.0000      -0.422347       -11.4927
  72   1.0000      -0.419637       -11.4189
  73   1.0000      -0.412607       -11.2276
  74   1.0000      -0.407615       -11.0918
  75   1.0000      -0.375724       -10.2240
  76   1.0000      -0.372505       -10.1364
  77   1.0000      -0.292527        -7.9601
  78   1.0000      -0.292097        -7.9484
  79   1.0000      -0.278666        -7.5829
  80   1.0000      -0.278213        -7.5706
  81   1.0000      -0.259830        -7.0703
  82   1.0000      -0.255413        -6.9501
  83   1.0000      -0.242203        -6.5907
  84   1.0000      -0.239748        -6.5239
  85   1.0000      -0.194885        -5.3031
  86   1.0000      -0.192621        -5.2415
  87   1.0000      -0.192247        -5.2313
  88   1.0000      -0.190810        -5.1922
  89   1.0000      -0.184724        -5.0266
  90   1.0000      -0.184384        -5.0174
  91   1.0000      -0.179467        -4.8835
  92   1.0000      -0.153763        -4.1841
  93   1.0000      -0.150282        -4.0894
  94   1.0000      -0.145279        -3.9532
  95   1.0000      -0.143751        -3.9117
  96   1.0000      -0.142404        -3.8750
  97   1.0000      -0.098134        -2.6704
  98   1.0000      -0.091776        -2.4974
  99   1.0000      -0.086937        -2.3657
 100   1.0000      -0.085901        -2.3375
 101   1.0000      -0.077940        -2.1208
 102   1.0000      -0.069511        -1.8915
 103   1.0000      -0.061544        -1.6747
 104   1.0000      -0.045739        -1.2446
 105   1.0000      -0.039773        -1.0823
 106   1.0000      -0.036094        -0.9822
 107   1.0000      -0.035415        -0.9637
 108   1.0000      -0.031297        -0.8516
 109   1.0000      -0.016712        -0.4548
 110   1.0000      -0.005356        -0.1457
 111   1.0000       0.000537         0.0146
 112   1.0000       0.014675         0.3993
 113   1.0000       0.021433         0.5832
 114   1.0000       0.032598         0.8870
 115   1.0000       0.056895         1.5482
 116   0.0000       0.180371         4.9082
 117   0.0000       0.186136         5.0650
 118   0.0000       0.190335         5.1793
 119   0.0000       0.194991         5.3060
 120   0.0000       0.195391         5.3169

MULLIKEN ATOMIC CHARGES AND SPIN POPULATIONS
--------------------------------------------
   0 V :    0.458051    1.141881
   1 S :   -0.273712   -0.032459
   2 S :   -0.276570   -0.032390
   3 S :   -0.225362    0.004890
   4 S :   -0.226348    0.004572
   5 O :   -0.521681   -0.126648
   6 C :   -0.169700    0.001306
   7 C :   -0.072998    0.018493
   8 C :   -0.171454    0.001341
   9 C :   -0.072054    0.018797
  10 S :   -0.031028    0.000974
  11 S :   -0.052681   -0.001204
  12 S :   -0.052137   -0.001193
  13 S :   -0.030332    0.000995
  14 C :   -0.348595    0.000221
  15 C :   -0.347457    0.000254
  16 C :   -0.323091   -0.000106
  17 C :   -0.322214   -0.000080
  18 C :   -0.087418    0.000449
  19 H :    0.134263   -0.000086
  20 H :    0.097789   -0.000070
  21 H :    0.044589    0.000021
  22 H :    0.079335   -0.000006
  23 H :    0.103667    0.000037
  24 H :    0.158390   -0.000172
  25 C :   -0.088148    0.000469
  26 H :    0.097500   -0.000070
  27 H :    0.134049   -0.000091
  28 H :    0.079114   -0.000012
  29 H :    0.044773    0.000023
  30 H :    0.157930   -0.000181
  31 H :    0.103534    0.000046
Sum of atomic charges         :   -2.0000000

LOEWDIN ATOMIC CHARGES AND SPIN POPULATIONS
-------------------------------------------
   0 V :   -0.270247    1.096045
   1 S :    0.026903   -0.026104
   2 S :    0.023655   -0.026140
   3 S :    0.171098    0.012163
   4 S :    0.167442    0.011583
   5 O :   -0.374092   -0.114602
   6 C :   -0.570395    0.000448
   7 C :   -0.530923    0.024862
   8 C :   -0.571671    0.000369
   9 C :   -0.533073    0.025221
  10 S :    0.366806    0.000259
  11 S :    0.307388   -0.002305
  12 S :    0.308842   -0.002291
  13 S :    0.368136    0.000286
  14 C :   -0.289601    0.000147
  15 C :   -0.289689    0.000161
  16 C :   -0.298223    0.000053
  17 C :   -0.298231    0.000083
  18 C :   -0.185693   -0.000005
  19 H :    0.062532   -0.000046
  20 H :    0.048472   -0.000031
  21 H :    0.046625    0.000009
  22 H :    0.053413    0.000005
  23 H :    0.047582    0.000006
  24 H :    0.069953   -0.000061
  25 C :   -0.185555   -0.000005
  26 H :    0.048619   -0.000030
  27 H :    0.062514   -0.000046
  28 H :    0.053417    0.000004
  29 H :    0.046717    0.000013
  30 H :    0.069702   -0.000061
  31 H :    0.047579    0.000012

  Mayer bond orders larger than 0.100000
B(  0-V ,  1-S ) :   0.6128 B(  0-V ,  2-S ) :   0.6125 B(  0-V ,  3-S ) :   0.9911
B(  0-V ,  4-S ) :   0.9844 B(  0-V ,  5-O ) :   2.0733 B(  1-S ,  8-C ) :   1.2492
B(  2-S ,  6-C ) :   1.2442 B(  3-S ,  9-C ) :   1.0202 B(  4-S ,  7-C ) :   1.0225
B(  6-C ,  7-C ) :   1.5045 B(  6-C , 10-S ) :   0.9801 B(  7-C , 11-S ) :   0.9255
B(  8-C ,  9-C ) :   1.5015 B(  8-C , 13-S ) :   0.9835 B(  9-C , 12-S ) :   0.9281
B( 10-S , 16-C ) :   0.9927 B( 11-S , 14-C ) :   1.0115 B( 12-S , 15-C ) :   1.0110
B( 13-S , 17-C ) :   0.9923 B( 14-C , 18-C ) :   0.8782 B( 14-C , 23-H ) :   0.9675
B( 14-C , 24-H ) :   0.9775 B( 15-C , 25-C ) :   0.8786 B( 15-C , 30-H ) :   0.9772
B( 15-C , 31-H ) :   0.9676 B( 16-C , 18-C ) :   0.8773 B( 16-C , 19-H ) :   0.9722
B( 16-C , 20-H ) :   0.9725 B( 17-C , 25-C ) :   0.8775 B( 17-C , 26-H ) :   0.9727
B( 17-C , 27-H ) :   0.9717 B( 18-C , 21-H ) :   0.9526 B( 18-C , 22-H ) :   0.9742
B( 25-C , 28-H ) :   0.9744 B( 25-C , 29-H ) :   0.9526

FINAL SINGLE POINT ENERGY     -4592.660514783124

DIPOLE MOMENT
-------------
                                X             Y             Z
Electronic contribution:     12.12187      22.66828       7.06183
Nuclear contribution   :    -14.09968     -25.02041      -7.89106
                        -----------------------------------------
Total Dipole Moment    :     -1.97782      -2.35213      -0.82923
                        -----------------------------------------
Magnitude (a.u.)       :      3.18306
Magnitude (Debye)      :      8.09070

Rotational constants in cm-1:     0.012720     0.002548     0.002429
Rotational constants in MHz :   381.322007    76.376630    72.811731

                             ****ORCA TERMINATED NORMALLY****
TOTAL RUN TIME: 0 days 0 hours 28 minutes 1 seconds 187 msec
