                         Program Version 5.0.4 -  RELEASE  -
|  1> ! nofrozencore ReducedPop printbasis
|  2> ! B3LYP TZVP
|  3>
|  4> %basis
|  5> newgto V "CP(PPP)" end
|  6> end
|  7>
|  8> %pal
|  9> nprocs 8
| 10> end
| 11>
| 12> % sym SymThresh 1e-2 end
| 13> * xyz -2 2
| 14> V -0.03951621073256472 1.0712906858397748 -0.30781840474423344
| 15> S -0.4145293007094005 -0.26893704112043504 -2.288411740842054
| 16> S -2.320661481581297 0.38145534009642273 0.37470435133692065
| 17> S 2.296966308638686 0.2820972219504945 -0.5637744496211069
| 18> S 0.386406604246179 1.0230978934580608 2.0749244742521626
| 19> O -0.09592209748816515 2.603299645807835 -0.7539194557572261
| 20> C -2.3512113806388215 0.7116790445612471 2.114037555414018
| 21> C -1.2174029769103119 0.9870414450771342 2.8119114639431575
| 22> C 1.202279736859051 -0.5689511075390722 -2.930524663447519
| 23> C 2.338807500341198 -0.35296381926772274 -2.2161230861330106
| 24> S -3.9826728694619233 0.6653006312037322 2.895974402183977
| 25> S -1.2069168376236745 1.2794311184863465 4.587077164906455
| 26> S 3.9845759513663412 -0.6935087238151323 -2.8877291878452382
| 27> S 1.2061959533891162 -1.2579090713082386 -4.592810713038603
| 28> C -1.671361149799089 -0.3799515362165468 5.24738888535755
| 29> C 4.029988596458039 -2.5353806233486513 -3.054973876925524
| 30> C -3.907233422810852 -0.8078760733234595 4.012895353246488
| 31> C 1.79423224736355 -2.9791238622030036 -4.28612940758797
| 32> C -3.176614433768982 -0.6356745490250727 5.348176004767638
| 33> H -3.4722295873140645 -1.6309956791076223 3.4338455745799155
| 34> H -4.96078183853628 -1.0540176702976514 4.204202746920743
| 35> H -3.3301733611715463 -1.5586757529166935 5.9306036056646025
| 36> H -3.6411985763133363 0.1800084046401919 5.916156439585809
| 37> H -1.2193543243630542 -0.4357548387142192 6.24689748797115
| 38> H -1.1788821540312597 -1.125238806553001 4.612746619441587
| 39> C 3.314973753290741 -3.1456031464426553 -4.264349184578294
| 40> H 1.3683491306225823 -3.583759866656232 -5.09838691488774
| 41> H 1.3386600981319485 -3.3098715691658196 -3.3458699063983572
| 42> H 3.734056766370826 -2.724076625044113 -5.18665272557191
| 43> H 3.542655567809919 -4.223891851001127 -4.273590667947698
| 44> H 3.6417812720949962 -2.954796132572869 -2.1191126772900883
| 45> H 5.101353100638719 -2.773559077047556 -3.108534621471157
| 46> *
| 47>
| 48> % eprnmr
| 49> gtensor true
| 50> Nuclei = all H {aiso,adip,aorb,fgrad,rho}
| 51> Nuclei = all V {aiso,adip,aorb,fgrad,rho}
| 52> end
| 53>
| 54>                          ****END OF INPUT****

CARTESIAN COORDINATES (ANGSTROEM)
---------------------------------
  V     -0.039609    1.072444   -0.308083
  S     -0.414622   -0.267784   -2.288676
  S     -2.320754    0.382608    0.374440
  S      2.296874    0.283250   -0.564039
  S      0.386314    1.024251    2.074660
  O     -0.096014    2.604453   -0.754184
  C     -2.351304    0.712832    2.113773
  C     -1.217495    0.988194    2.811647
  C      1.202187   -0.567798   -2.930789
  C      2.338715   -0.351811   -2.216388
  S     -3.982765    0.666454    2.895710
  S     -1.207009    1.280584    4.586812
  S      3.984484   -0.692356   -2.887994
  S      1.206104   -1.256756   -4.593075
  C     -1.671453   -0.378799    5.247124
  C      4.029896   -2.534228   -3.055239
  C     -3.907326   -0.806723    4.012631
  C      1.794140   -2.977971   -4.286394
  C     -3.176707   -0.634522    5.347911
  H     -3.472322   -1.629843    3.433581
  H     -4.960874   -1.052865    4.203938
  H     -3.330266   -1.557523    5.930339
  H     -3.641291    0.181161    5.915892
  H     -1.219447   -0.434602    6.246633
  H     -1.178974   -1.124086    4.612482
  C      3.314881   -3.144450   -4.264614
  H      1.368257   -3.582607   -5.098652
  H      1.338568   -3.308719   -3.346135
  H      3.733964   -2.722924   -5.186917
  H      3.542563   -4.222739   -4.273855
  H      3.641689   -2.953643   -2.119377
  H      5.101261   -2.772406   -3.108799

 Total Charge           Charge          ....   -2
 Multiplicity           Mult            ....    2
 Number of Electrons    NEL             ....  233
 Basis Dimension        Dim             ....  517

ORBITAL ENERGIES
----------------
                 SPIN UP ORBITALS
  NO   OCC          E(Eh)            E(eV)
   0   1.0000    -196.639898     -5350.8437
   1   1.0000     -88.677331     -2413.0329
   2   1.0000     -88.677311     -2413.0323
   3   1.0000     -88.675607     -2412.9859
   4   1.0000     -88.675481     -2412.9825
   5   1.0000     -88.612013     -2411.2554
   6   1.0000     -88.611976     -2411.2545
   7   1.0000     -88.611772     -2411.2489
   8   1.0000     -88.611756     -2411.2485
   9   1.0000     -22.015722      -599.0782
  10   1.0000     -18.857028      -513.1258
  11   1.0000     -18.522546      -504.0241
  12   1.0000     -18.516791      -503.8675
  13   1.0000     -18.516712      -503.8654
  14   1.0000     -10.017520      -272.5906
  15   1.0000     -10.017491      -272.5898
  16   1.0000     -10.015342      -272.5313
  17   1.0000     -10.015263      -272.5292
  18   1.0000     -10.005320      -272.2586
  19   1.0000     -10.005262      -272.2570
  20   1.0000      -9.992238      -271.9026
  21   1.0000      -9.992216      -271.9020
  22   1.0000      -9.990743      -271.8619
  23   1.0000      -9.990710      -271.8610
  24   1.0000      -7.730722      -210.3636
  25   1.0000      -7.730712      -210.3634
  26   1.0000      -7.729469      -210.3295
  27   1.0000      -7.729364      -210.3267
  28   1.0000      -7.666498      -208.6160
  29   1.0000      -7.666476      -208.6154
  30   1.0000      -7.666162      -208.6069
  31   1.0000      -7.666153      -208.6066
  32   1.0000      -5.696017      -154.9965
  33   1.0000      -5.696006      -154.9962
  34   1.0000      -5.694673      -154.9599
  35   1.0000      -5.694568      -154.9571
  36   1.0000      -5.692060      -154.8888
  37   1.0000      -5.692047      -154.8885
  38   1.0000      -5.690844      -154.8557
  39   1.0000      -5.690735      -154.8528
  40   1.0000      -5.685483      -154.7099
  41   1.0000      -5.685473      -154.7096
  42   1.0000      -5.684196      -154.6748
  43   1.0000      -5.684094      -154.6721
  44   1.0000      -5.631295      -153.2353
  45   1.0000      -5.631283      -153.2350
  46   1.0000      -5.631056      -153.2288
  47   1.0000      -5.631039      -153.2284
  48   1.0000      -5.624882      -153.0608
  49   1.0000      -5.624866      -153.0604
  50   1.0000      -5.624650      -153.0545
  51   1.0000      -5.624635      -153.0541
  52   1.0000      -5.624523      -153.0511
  53   1.0000      -5.624491      -153.0502
  54   1.0000      -5.624113      -153.0399
  55   1.0000      -5.624100      -153.0396
  56   1.0000      -2.409462       -65.5648
  57   1.0000      -1.450825       -39.4790
  58   1.0000      -1.439268       -39.1645
  59   1.0000      -1.438178       -39.1348
  60   1.0000      -0.643038       -17.4980
  61   1.0000      -0.642970       -17.4961
  62   1.0000      -0.618091       -16.8191
  63   1.0000      -0.593460       -16.1489
  64   1.0000      -0.593012       -16.1367
  65   1.0000      -0.575242       -15.6531
  66   1.0000      -0.575160       -15.6509
  67   1.0000      -0.491282       -13.3685
  68   1.0000      -0.489400       -13.3173
  69   1.0000      -0.487179       -13.2568
  70   1.0000      -0.486002       -13.2248
  71   1.0000      -0.422725       -11.5029
  72   1.0000      -0.419957       -11.4276
  73   1.0000      -0.412230       -11.2173
  74   1.0000      -0.407127       -11.0785
  75   1.0000      -0.375987       -10.2311
  76   1.0000      -0.372845       -10.1456
  77   1.0000      -0.291897        -7.9429
  78   1.0000      -0.291702        -7.9376
  79   1.0000      -0.277282        -7.5452
  80   1.0000      -0.277006        -7.5377
  81   1.0000      -0.260220        -7.0810
  82   1.0000      -0.255415        -6.9502
  83   1.0000      -0.241649        -6.5756
  84   1.0000      -0.238842        -6.4992
  85   1.0000      -0.195271        -5.3136
  86   1.0000      -0.192380        -5.2349
  87   1.0000      -0.191886        -5.2215
  88   1.0000      -0.191246        -5.2041
  89   1.0000      -0.184602        -5.0233
  90   1.0000      -0.184389        -5.0175
  91   1.0000      -0.180861        -4.9215
  92   1.0000      -0.150867        -4.1053
  93   1.0000      -0.149493        -4.0679
  94   1.0000      -0.143404        -3.9022
  95   1.0000      -0.143194        -3.8965
  96   1.0000      -0.141796        -3.8585
  97   1.0000      -0.097278        -2.6471
  98   1.0000      -0.096338        -2.6215
  99   1.0000      -0.089495        -2.4353
 100   1.0000      -0.083262        -2.2657
 101   1.0000      -0.081498        -2.2177
 102   1.0000      -0.080097        -2.1796
 103   1.0000      -0.069621        -1.8945
 104   1.0000      -0.050290        -1.3685
 105   1.0000      -0.038066        -1.0358
 106   1.0000      -0.038048        -1.0353
 107   1.0000      -0.035271        -0.9598
 108   1.0000      -0.031947        -0.8693
 109   1.0000      -0.012869        -0.3502
 110   1.0000      -0.004193        -0.1141
 111   1.0000      -0.003211        -0.0874
 112   1.0000       0.006285         0.1710
 113   1.0000       0.010851         0.2953
 114   1.0000       0.016423         0.4469
 115   1.0000       0.033717         0.9175
 116   1.0000       0.059863         1.6290
 117   0.0000       0.188113         5.1188
 118   0.0000       0.195559         5.3214
 119   0.0000       0.196260         5.3405
 120   0.0000       0.196539         5.3481
 121   0.0000       0.211174         5.7463

                 SPIN DOWN ORBITALS
  NO   OCC          E(Eh)            E(eV)
   0   1.0000    -196.640040     -5350.8475
   1   1.0000     -88.677344     -2413.0332
   2   1.0000     -88.677324     -2413.0327
   3   1.0000     -88.675621     -2412.9863
   4   1.0000     -88.675495     -2412.9829
   5   1.0000     -88.612173     -2411.2598
   6   1.0000     -88.612137     -2411.2588
   7   1.0000     -88.611930     -2411.2532
   8   1.0000     -88.611915     -2411.2528
   9   1.0000     -22.001058      -598.6792
  10   1.0000     -18.860612      -513.2233
  11   1.0000     -18.517417      -503.8845
  12   1.0000     -18.501287      -503.4456
  13   1.0000     -18.500602      -503.4270
  14   1.0000     -10.017517      -272.5905
  15   1.0000     -10.017488      -272.5897
  16   1.0000     -10.015338      -272.5312
  17   1.0000     -10.015258      -272.5290
  18   1.0000     -10.005320      -272.2586
  19   1.0000     -10.005262      -272.2570
  20   1.0000      -9.992011      -271.8964
  21   1.0000      -9.991989      -271.8958
  22   1.0000      -9.990460      -271.8542
  23   1.0000      -9.990427      -271.8533
  24   1.0000      -7.730736      -210.3640
  25   1.0000      -7.730726      -210.3637
  26   1.0000      -7.729483      -210.3299
  27   1.0000      -7.729378      -210.3271
  28   1.0000      -7.666645      -208.6200
  29   1.0000      -7.666623      -208.6194
  30   1.0000      -7.666311      -208.6109
  31   1.0000      -7.666303      -208.6107
  32   1.0000      -5.696034      -154.9970
  33   1.0000      -5.696023      -154.9967
  34   1.0000      -5.694689      -154.9604
  35   1.0000      -5.694585      -154.9575
  36   1.0000      -5.692081      -154.8894
  37   1.0000      -5.692068      -154.8890
  38   1.0000      -5.690863      -154.8563
  39   1.0000      -5.690754      -154.8533
  40   1.0000      -5.685498      -154.7103
  41   1.0000      -5.685489      -154.7100
  42   1.0000      -5.684215      -154.6753
  43   1.0000      -5.684112      -154.6726
  44   1.0000      -5.631473      -153.2402
  45   1.0000      -5.631460      -153.2398
  46   1.0000      -5.631222      -153.2333
  47   1.0000      -5.631206      -153.2329
  48   1.0000      -5.625261      -153.0711
  49   1.0000      -5.625246      -153.0707
  50   1.0000      -5.625050      -153.0654
  51   1.0000      -5.625034      -153.0650
  52   1.0000      -5.624661      -153.0548
  53   1.0000      -5.624628      -153.0539
  54   1.0000      -5.624246      -153.0435
  55   1.0000      -5.624235      -153.0432
  56   1.0000      -2.365292       -64.3629
  57   1.0000      -1.431998       -38.9667
  58   1.0000      -1.377874       -37.4939
  59   1.0000      -1.377224       -37.4762
  60   1.0000      -0.642988       -17.4966
  61   1.0000      -0.642916       -17.4946
  62   1.0000      -0.625767       -17.0280
  63   1.0000      -0.593272       -16.1438
  64   1.0000      -0.592802       -16.1310
  65   1.0000      -0.575237       -15.6530
  66   1.0000      -0.575156       -15.6508
  67   1.0000      -0.491305       -13.3691
  68   1.0000      -0.489436       -13.3182
  69   1.0000      -0.487179       -13.2568
  70   1.0000      -0.486022       -13.2253
  71   1.0000      -0.422962       -11.5094
  72   1.0000      -0.420258       -11.4358
  73   1.0000      -0.412248       -11.2178
  74   1.0000      -0.407224       -11.0811
  75   1.0000      -0.375940       -10.2298
  76   1.0000      -0.372870       -10.1463
  77   1.0000      -0.291872        -7.9422
  78   1.0000      -0.291691        -7.9373
  79   1.0000      -0.277257        -7.5445
  80   1.0000      -0.276992        -7.5373
  81   1.0000      -0.260015        -7.0754
  82   1.0000      -0.255376        -6.9491
  83   1.0000      -0.241545        -6.5728
  84   1.0000      -0.238766        -6.4971
  85   1.0000      -0.194814        -5.3012
  86   1.0000      -0.192324        -5.2334
  87   1.0000      -0.191838        -5.2202
  88   1.0000      -0.191224        -5.2035
  89   1.0000      -0.184547        -5.0218
  90   1.0000      -0.184338        -5.0161
  91   1.0000      -0.178738        -4.8637
  92   1.0000      -0.150226        -4.0879
  93   1.0000      -0.149148        -4.0585
  94   1.0000      -0.143176        -3.8960
  95   1.0000      -0.142889        -3.8882
  96   1.0000      -0.141734        -3.8568
  97   1.0000      -0.095853        -2.6083
  98   1.0000      -0.095730        -2.6050
  99   1.0000      -0.089629        -2.4389
 100   1.0000      -0.083264        -2.2657
 101   1.0000      -0.081979        -2.2308
 102   1.0000      -0.081024        -2.2048
 103   1.0000      -0.070931        -1.9301
 104   1.0000      -0.046123        -1.2551
 105   1.0000      -0.038321        -1.0428
 106   1.0000      -0.037249        -1.0136
 107   1.0000      -0.034191        -0.9304
 108   1.0000      -0.031914        -0.8684
 109   1.0000      -0.011983        -0.3261
 110   1.0000      -0.005543        -0.1508
 111   1.0000      -0.002209        -0.0601
 112   1.0000       0.007145         0.1944
 113   1.0000       0.011756         0.3199
 114   1.0000       0.033972         0.9244
 115   1.0000       0.059073         1.6075
 116   0.0000       0.185361         5.0439
 117   0.0000       0.189328         5.1519
 118   0.0000       0.196102         5.3362
 119   0.0000       0.196320         5.3421
 120   0.0000       0.196853         5.3566

MULLIKEN ATOMIC CHARGES AND SPIN POPULATIONS
--------------------------------------------
   0 V :    0.447915    1.198990
   1 S :   -0.245419   -0.023512
   2 S :   -0.262514   -0.024674
   3 S :   -0.262840   -0.024740
   4 S :   -0.245330   -0.023278
   5 O :   -0.506583   -0.138858
   6 C :   -0.118124    0.007845
   7 C :   -0.114339    0.009881
   8 C :   -0.114310    0.009983
   9 C :   -0.117607    0.007872
  10 S :   -0.046472   -0.000288
  11 S :   -0.042613   -0.000056
  12 S :   -0.046486   -0.000319
  13 S :   -0.042976   -0.000076
  14 C :   -0.344302    0.000394
  15 C :   -0.331719    0.000197
  16 C :   -0.331348    0.000171
  17 C :   -0.342860    0.000429
  18 C :   -0.084693    0.000128
  19 H :    0.139304   -0.000085
  20 H :    0.099731    0.000008
  21 H :    0.044760    0.000038
  22 H :    0.078729    0.000018
  23 H :    0.101808    0.000035
  24 H :    0.154672   -0.000121
  25 C :   -0.084358    0.000128
  26 H :    0.101645    0.000044
  27 H :    0.154185   -0.000126
  28 H :    0.078620    0.000013
  29 H :    0.044541    0.000035
  30 H :    0.139530   -0.000088
  31 H :    0.099454    0.000013
Sum of atomic charges         :   -2.0000000

LOEWDIN ATOMIC CHARGES AND SPIN POPULATIONS
-------------------------------------------
   0 V :   -0.243470    1.152911
   1 S :    0.100152   -0.015482
   2 S :    0.076207   -0.017111
   3 S :    0.075952   -0.017149
   4 S :    0.099979   -0.015348
   5 O :   -0.351002   -0.124289
   6 C :   -0.552185    0.008821
   7 C :   -0.554108    0.011196
   8 C :   -0.553928    0.011217
   9 C :   -0.551871    0.008813
  10 S :    0.334513   -0.001058
  11 S :    0.337930   -0.001004
  12 S :    0.334448   -0.001074
  13 S :    0.337897   -0.001012
  14 C :   -0.293109    0.000200
  15 C :   -0.295753    0.000132
  16 C :   -0.295739    0.000119
  17 C :   -0.293181    0.000213
  18 C :   -0.185375   -0.000035
  19 H :    0.063820   -0.000032
  20 H :    0.048071   -0.000004
  21 H :    0.046581    0.000016
  22 H :    0.053647    0.000012
  23 H :    0.047497    0.000013
  24 H :    0.069419   -0.000021
  25 C :   -0.185376   -0.000038
  26 H :    0.047478    0.000018
  27 H :    0.069356   -0.000021
  28 H :    0.053661    0.000010
  29 H :    0.046553    0.000017
  30 H :    0.063887   -0.000032
  31 H :    0.048051    0.000000

  Mayer bond orders larger than 0.100000
B(  0-V ,  1-S ) :   0.8062 B(  0-V ,  2-S ) :   0.7724 B(  0-V ,  3-S ) :   0.7723
B(  0-V ,  4-S ) :   0.8058 B(  0-V ,  5-O ) :   2.1079 B(  1-S ,  8-C ) :   1.1330
B(  2-S ,  6-C ) :   1.1414 B(  3-S ,  9-C ) :   1.1413 B(  4-S ,  7-C ) :   1.1333
B(  6-C ,  7-C ) :   1.5173 B(  6-C , 10-S ) :   0.9491 B(  7-C , 11-S ) :   0.9585
B(  8-C ,  9-C ) :   1.5178 B(  8-C , 13-S ) :   0.9584 B(  9-C , 12-S ) :   0.9491
B( 10-S , 16-C ) :   1.0139 B( 11-S , 14-C ) :   0.9949 B( 12-S , 15-C ) :   1.0142
B( 13-S , 17-C ) :   0.9952 B( 14-C , 18-C ) :   0.8785 B( 14-C , 23-H ) :   0.9689
B( 14-C , 24-H ) :   0.9752 B( 15-C , 25-C ) :   0.8777 B( 15-C , 30-H ) :   0.9745
B( 15-C , 31-H ) :   0.9700 B( 16-C , 18-C ) :   0.8777 B( 16-C , 19-H ) :   0.9745
B( 16-C , 20-H ) :   0.9699 B( 17-C , 25-C ) :   0.8783 B( 17-C , 26-H ) :   0.9690
B( 17-C , 27-H ) :   0.9751 B( 18-C , 21-H ) :   0.9524 B( 18-C , 22-H ) :   0.9736
B( 25-C , 28-H ) :   0.9737 B( 25-C , 29-H ) :   0.9523

FINAL SINGLE POINT ENERGY     -4592.723038580352

DIPOLE MOMENT
-------------
                                X             Y             Z
Electronic contribution:     -0.94105      25.64269      -7.34427
Nuclear contribution   :      1.04926     -28.58511       8.18836
                        -----------------------------------------
Total Dipole Moment    :      0.10820      -2.94243       0.84409
                        -----------------------------------------
Magnitude (a.u.)       :      3.06302
Magnitude (Debye)      :      7.78557

Rotational constants in cm-1:     0.012768     0.002548     0.002431
Rotational constants in MHz :   382.776628    76.393039    72.876289

                             ****ORCA TERMINATED NORMALLY****
TOTAL RUN TIME: 0 days 0 hours 27 minutes 49 seconds 208 msec
