                         Program Version 5.0.4 -  RELEASE  -
|  1> ! nofrozencore ReducedPop printbasis
|  2> ! B3LYP TZVP
|  3>
|  4> %basis
|  5> newgto V "CP(PPP)" end
|  6> end
|  7>
|  8> %pal
|  9> nprocs 4
| 10> end
| 11>
| 12> % sym SymThresh 1e-2 end
| 13> * xyz -2 2
| 14> V -0.9348345733929107 -0.3814261309028913 0.46813887226628065
| 15> S 0.5833899043965928 -2.196134578073442 -0.09414860866374883
| 16> S 0.578182354999845 0.06472354800845258 2.3770438993897507
| 17> S -1.423227174012558 -0.40502388368034603 -1.9622153992377382
| 18> S -0.9835558645902581 2.0443256319643703 0.2923428565735577
| 19> O -2.269341072665463 -0.9401543377373635 1.1432897386367928
| 20> C 0.3513787295402058 1.789134309136489 2.6887969348796887
| 21> C -0.3456614395809187 2.6045066505780503 1.8521726384337274
| 22> C 0.04401053037730201 -2.7218946542616425 -1.7032693620701351
| 23> C -0.7389564255117379 -1.9438592696848147 -2.4991845999072044
| 24> S 1.182203260516467 2.410254207060356 4.169279360778801
| 25> S -0.7033749610698403 4.329053344147394 2.243818619300425
| 26> S -1.0803449195812298 -2.36983516946308 -4.223180899714446
| 27> S 0.6022289316261252 -4.367395582237304 -2.1917249457207295
| 28> C 0.9310522090661959 5.16529560031031 2.027906152847784
| 29> C 0.6148711215938637 -2.377303997885883 -4.970644367056922
| 30> C 2.4110008648343415 3.6041640407890827 3.466516220825162
| 31> C 1.913233720254128 -4.020101812168154 -3.4474619554244352
| 32> C 1.905208777244525 5.023520165827125 3.1968251277083706
| 33> H 2.815156964323364 3.1515602075744926 2.5552066261174806
| 34> H 3.217797888469453 3.6397243917750446 4.210230156846453
| 35> H 2.7817413432050997 5.6578191558881725 2.985394214873695
| 36> H 1.4378455645171468 5.417164929449916 4.107378855401855
| 37> H 0.6878019259912846 6.225125094708292 1.8758434369010546
| 38> H 1.37330962769192 4.787274777703132 1.1000497241898253
| 39> C 1.4083852269484247 -3.681020334273075 -4.84941527659795
| 40> H 2.518402485188022 -4.936584042960965 -3.4834476711935776
| 41> H 2.5459074952307876 -3.217548325160954 -3.0515036666080926
| 42> H 0.7948218477050129 -4.509881362019273 -5.223207684692231
| 43> H 2.284216874031787 -3.603888428277205 -5.514536680031706
| 44> H 1.1654916936774753 -1.539151815519357 -4.529508446300578
| 45> H 0.4491699104232444 -2.1486593765537956 -6.032451593249367
| 46> *
| 47>
| 48> % eprnmr
| 49> gtensor true
| 50> Nuclei = all H {aiso,adip,aorb,fgrad,rho}
| 51> Nuclei = all V {aiso,adip,aorb,fgrad,rho}
| 52> end
| 53>
| 54>                          ****END OF INPUT****

CARTESIAN COORDINATES (ANGSTROEM)
---------------------------------
  V     -0.935822   -0.381777    0.468697
  S      0.582403   -2.196485   -0.093591
  S      0.577195    0.064373    2.377602
  S     -1.424214   -0.405374   -1.961657
  S     -0.984543    2.043975    0.292901
  O     -2.270328   -0.940505    1.143848
  C      0.350392    1.788784    2.689355
  C     -0.346648    2.604156    1.852731
  C      0.043024   -2.722245   -1.702711
  C     -0.739943   -1.944210   -2.498627
  S      1.181216    2.409904    4.169837
  S     -0.704362    4.328703    2.244377
  S     -1.081332   -2.370186   -4.222623
  S      0.601242   -4.367746   -2.191167
  C      0.930065    5.164945    2.028464
  C      0.613884   -2.377654   -4.970086
  C      2.410014    3.603814    3.467074
  C      1.912247   -4.020452   -3.446904
  C      1.904222    5.023170    3.197383
  H      2.814170    3.151210    2.555765
  H      3.216811    3.639374    4.210788
  H      2.780754    5.657469    2.985952
  H      1.436859    5.416814    4.107937
  H      0.686815    6.224775    1.876401
  H      1.372323    4.786924    1.100608
  C      1.407398   -3.681371   -4.848857
  H      2.517416   -4.936934   -3.482890
  H      2.544921   -3.217899   -3.050946
  H      0.793835   -4.510232   -5.222650
  H      2.283230   -3.604239   -5.513979
  H      1.164505   -1.539502   -4.528950
  H      0.448183   -2.149010   -6.031894

 Total Charge           Charge          ....   -2
 Multiplicity           Mult            ....    2
 Number of Electrons    NEL             ....  233
 Basis Dimension        Dim             ....  517

ORBITAL ENERGIES
----------------
                 SPIN UP ORBITALS
  NO   OCC          E(Eh)            E(eV)
   0   1.0000    -196.640907     -5350.8711
   1   1.0000     -88.677934     -2413.0493
   2   1.0000     -88.677814     -2413.0460
   3   1.0000     -88.675700     -2412.9885
   4   1.0000     -88.675498     -2412.9830
   5   1.0000     -88.612447     -2411.2673
   6   1.0000     -88.612334     -2411.2642
   7   1.0000     -88.612222     -2411.2611
   8   1.0000     -88.612016     -2411.2555
   9   1.0000     -22.016647      -599.1034
  10   1.0000     -18.857659      -513.1430
  11   1.0000     -18.523475      -504.0494
  12   1.0000     -18.517765      -503.8940
  13   1.0000     -18.517591      -503.8893
  14   1.0000     -10.016768      -272.5701
  15   1.0000     -10.016660      -272.5672
  16   1.0000     -10.015867      -272.5456
  17   1.0000     -10.015841      -272.5449
  18   1.0000     -10.005069      -272.2518
  19   1.0000     -10.005044      -272.2511
  20   1.0000      -9.994034      -271.9515
  21   1.0000      -9.993787      -271.9448
  22   1.0000      -9.990278      -271.8493
  23   1.0000      -9.990148      -271.8458
  24   1.0000      -7.731414      -210.3825
  25   1.0000      -7.731331      -210.3802
  26   1.0000      -7.729277      -210.3243
  27   1.0000      -7.729053      -210.3182
  28   1.0000      -7.666716      -208.6219
  29   1.0000      -7.666653      -208.6202
  30   1.0000      -7.666535      -208.6170
  31   1.0000      -7.666355      -208.6121
  32   1.0000      -5.696639      -155.0134
  33   1.0000      -5.696560      -155.0113
  34   1.0000      -5.694567      -154.9570
  35   1.0000      -5.694338      -154.9508
  36   1.0000      -5.692762      -154.9079
  37   1.0000      -5.692676      -154.9056
  38   1.0000      -5.690664      -154.8508
  39   1.0000      -5.690454      -154.8451
  40   1.0000      -5.686224      -154.7300
  41   1.0000      -5.686130      -154.7275
  42   1.0000      -5.683971      -154.6687
  43   1.0000      -5.683742      -154.6625
  44   1.0000      -5.631597      -153.2436
  45   1.0000      -5.631520      -153.2414
  46   1.0000      -5.631406      -153.2384
  47   1.0000      -5.631222      -153.2333
  48   1.0000      -5.625209      -153.0697
  49   1.0000      -5.625148      -153.0681
  50   1.0000      -5.625127      -153.0675
  51   1.0000      -5.624995      -153.0639
  52   1.0000      -5.624652      -153.0546
  53   1.0000      -5.624598      -153.0531
  54   1.0000      -5.624346      -153.0462
  55   1.0000      -5.624113      -153.0399
  56   1.0000      -2.410313       -65.5879
  57   1.0000      -1.451655       -39.5015
  58   1.0000      -1.440039       -39.1855
  59   1.0000      -1.439017       -39.1576
  60   1.0000      -0.642916       -17.4946
  61   1.0000      -0.642658       -17.4876
  62   1.0000      -0.618696       -16.8356
  63   1.0000      -0.593076       -16.1384
  64   1.0000      -0.592553       -16.1242
  65   1.0000      -0.574681       -15.6379
  66   1.0000      -0.574417       -15.6307
  67   1.0000      -0.490731       -13.3535
  68   1.0000      -0.488927       -13.3044
  69   1.0000      -0.486557       -13.2399
  70   1.0000      -0.485429       -13.2092
  71   1.0000      -0.422873       -11.5070
  72   1.0000      -0.420099       -11.4315
  73   1.0000      -0.412032       -11.2120
  74   1.0000      -0.406982       -11.0745
  75   1.0000      -0.376012       -10.2318
  76   1.0000      -0.372935       -10.1481
  77   1.0000      -0.292108        -7.9487
  78   1.0000      -0.291762        -7.9392
  79   1.0000      -0.277360        -7.5473
  80   1.0000      -0.277053        -7.5390
  81   1.0000      -0.259986        -7.0746
  82   1.0000      -0.255309        -6.9473
  83   1.0000      -0.241153        -6.5621
  84   1.0000      -0.238477        -6.4893
  85   1.0000      -0.194777        -5.3002
  86   1.0000      -0.192759        -5.2452
  87   1.0000      -0.191491        -5.2107
  88   1.0000      -0.191322        -5.2061
  89   1.0000      -0.183980        -5.0063
  90   1.0000      -0.183591        -4.9958
  91   1.0000      -0.180005        -4.8982
  92   1.0000      -0.151855        -4.1322
  93   1.0000      -0.149771        -4.0755
  94   1.0000      -0.145247        -3.9524
  95   1.0000      -0.141439        -3.8488
  96   1.0000      -0.140743        -3.8298
  97   1.0000      -0.097730        -2.6594
  98   1.0000      -0.096682        -2.6309
  99   1.0000      -0.089055        -2.4233
 100   1.0000      -0.084968        -2.3121
 101   1.0000      -0.080236        -2.1833
 102   1.0000      -0.079827        -2.1722
 103   1.0000      -0.069500        -1.8912
 104   1.0000      -0.049720        -1.3530
 105   1.0000      -0.040016        -1.0889
 106   1.0000      -0.038169        -1.0386
 107   1.0000      -0.034354        -0.9348
 108   1.0000      -0.031922        -0.8686
 109   1.0000      -0.013812        -0.3758
 110   1.0000      -0.003495        -0.0951
 111   1.0000      -0.002589        -0.0704
 112   1.0000       0.005636         0.1534
 113   1.0000       0.010339         0.2813
 114   1.0000       0.016536         0.4500
 115   1.0000       0.034287         0.9330
 116   1.0000       0.058956         1.6043
 117   0.0000       0.187298         5.0966
 118   0.0000       0.193964         5.2780
 119   0.0000       0.196377         5.3437
 120   0.0000       0.196595         5.3496
 121   0.0000       0.209495         5.7007

                 SPIN DOWN ORBITALS
  NO   OCC          E(Eh)            E(eV)
   0   1.0000    -196.641049     -5350.8750
   1   1.0000     -88.677948     -2413.0497
   2   1.0000     -88.677829     -2413.0464
   3   1.0000     -88.675712     -2412.9888
   4   1.0000     -88.675510     -2412.9833
   5   1.0000     -88.612607     -2411.2716
   6   1.0000     -88.612493     -2411.2685
   7   1.0000     -88.612381     -2411.2655
   8   1.0000     -88.612176     -2411.2599
   9   1.0000     -22.001927      -598.7029
  10   1.0000     -18.861264      -513.2411
  11   1.0000     -18.518321      -503.9091
  12   1.0000     -18.502138      -503.4688
  13   1.0000     -18.501488      -503.4511
  14   1.0000     -10.016761      -272.5699
  15   1.0000     -10.016654      -272.5670
  16   1.0000     -10.015864      -272.5455
  17   1.0000     -10.015839      -272.5448
  18   1.0000     -10.005069      -272.2518
  19   1.0000     -10.005044      -272.2511
  20   1.0000      -9.993802      -271.9452
  21   1.0000      -9.993557      -271.9385
  22   1.0000      -9.990010      -271.8420
  23   1.0000      -9.989883      -271.8385
  24   1.0000      -7.731429      -210.3829
  25   1.0000      -7.731346      -210.3806
  26   1.0000      -7.729289      -210.3246
  27   1.0000      -7.729066      -210.3186
  28   1.0000      -7.666864      -208.6260
  29   1.0000      -7.666801      -208.6243
  30   1.0000      -7.666683      -208.6211
  31   1.0000      -7.666504      -208.6162
  32   1.0000      -5.696657      -155.0139
  33   1.0000      -5.696578      -155.0118
  34   1.0000      -5.694582      -154.9574
  35   1.0000      -5.694353      -154.9512
  36   1.0000      -5.692783      -154.9085
  37   1.0000      -5.692698      -154.9062
  38   1.0000      -5.690682      -154.8513
  39   1.0000      -5.690472      -154.8456
  40   1.0000      -5.686243      -154.7305
  41   1.0000      -5.686150      -154.7280
  42   1.0000      -5.683985      -154.6691
  43   1.0000      -5.683756      -154.6629
  44   1.0000      -5.631764      -153.2481
  45   1.0000      -5.631687      -153.2460
  46   1.0000      -5.631579      -153.2431
  47   1.0000      -5.631394      -153.2380
  48   1.0000      -5.625582      -153.0799
  49   1.0000      -5.625523      -153.0783
  50   1.0000      -5.625505      -153.0778
  51   1.0000      -5.625374      -153.0742
  52   1.0000      -5.624810      -153.0589
  53   1.0000      -5.624752      -153.0573
  54   1.0000      -5.624493      -153.0502
  55   1.0000      -5.624259      -153.0439
  56   1.0000      -2.365993       -64.3819
  57   1.0000      -1.432744       -38.9869
  58   1.0000      -1.378448       -37.5095
  59   1.0000      -1.377866       -37.4936
  60   1.0000      -0.642868       -17.4933
  61   1.0000      -0.642609       -17.4863
  62   1.0000      -0.626427       -17.0459
  63   1.0000      -0.592894       -16.1335
  64   1.0000      -0.592355       -16.1188
  65   1.0000      -0.574674       -15.6377
  66   1.0000      -0.574409       -15.6305
  67   1.0000      -0.490762       -13.3543
  68   1.0000      -0.488972       -13.3056
  69   1.0000      -0.486560       -13.2400
  70   1.0000      -0.485451       -13.2098
  71   1.0000      -0.423120       -11.5137
  72   1.0000      -0.420414       -11.4400
  73   1.0000      -0.412056       -11.2126
  74   1.0000      -0.407087       -11.0774
  75   1.0000      -0.375974       -10.2308
  76   1.0000      -0.372970       -10.1490
  77   1.0000      -0.292087        -7.9481
  78   1.0000      -0.291748        -7.9389
  79   1.0000      -0.277337        -7.5467
  80   1.0000      -0.277038        -7.5386
  81   1.0000      -0.259791        -7.0693
  82   1.0000      -0.255271        -6.9463
  83   1.0000      -0.241053        -6.5594
  84   1.0000      -0.238406        -6.4873
  85   1.0000      -0.194382        -5.2894
  86   1.0000      -0.192709        -5.2439
  87   1.0000      -0.191445        -5.2095
  88   1.0000      -0.191266        -5.2046
  89   1.0000      -0.183929        -5.0050
  90   1.0000      -0.183541        -4.9944
  91   1.0000      -0.177917        -4.8414
  92   1.0000      -0.151270        -4.1163
  93   1.0000      -0.149385        -4.0650
  94   1.0000      -0.144949        -3.9443
  95   1.0000      -0.141227        -3.8430
  96   1.0000      -0.140676        -3.8280
  97   1.0000      -0.096263        -2.6194
  98   1.0000      -0.096161        -2.6167
  99   1.0000      -0.089265        -2.4290
 100   1.0000      -0.084726        -2.3055
 101   1.0000      -0.082212        -2.2371
 102   1.0000      -0.079623        -2.1666
 103   1.0000      -0.070733        -1.9247
 104   1.0000      -0.045575        -1.2402
 105   1.0000      -0.039177        -1.0661
 106   1.0000      -0.038435        -1.0459
 107   1.0000      -0.033334        -0.9071
 108   1.0000      -0.031904        -0.8682
 109   1.0000      -0.013167        -0.3583
 110   1.0000      -0.003658        -0.0995
 111   1.0000      -0.002327        -0.0633
 112   1.0000       0.007053         0.1919
 113   1.0000       0.011196         0.3047
 114   1.0000       0.034582         0.9410
 115   1.0000       0.058150         1.5824
 116   0.0000       0.184853         5.0301
 117   0.0000       0.188787         5.1371
 118   0.0000       0.195479         5.3193
 119   0.0000       0.196472         5.3463
 120   0.0000       0.196868         5.3571

MULLIKEN ATOMIC CHARGES AND SPIN POPULATIONS
--------------------------------------------
   0 V :    0.451028    1.201321
   1 S :   -0.256551   -0.024758
   2 S :   -0.253853   -0.024230
   3 S :   -0.255133   -0.024235
   4 S :   -0.256629   -0.024337
   5 O :   -0.505513   -0.139859
   6 C :   -0.099237    0.008479
   7 C :   -0.132909    0.009381
   8 C :   -0.134470    0.009326
   9 C :   -0.097205    0.008665
  10 S :   -0.041508   -0.000577
  11 S :   -0.047611    0.000129
  12 S :   -0.041182   -0.000628
  13 S :   -0.048064    0.000112
  14 C :   -0.322597    0.000194
  15 C :   -0.352838    0.000400
  16 C :   -0.350939    0.000351
  17 C :   -0.319605    0.000217
  18 C :   -0.085694    0.000160
  19 H :    0.154637   -0.000101
  20 H :    0.100302    0.000014
  21 H :    0.044839    0.000027
  22 H :    0.078630    0.000013
  23 H :    0.100497    0.000023
  24 H :    0.139852   -0.000107
  25 C :   -0.086094    0.000161
  26 H :    0.099801    0.000032
  27 H :    0.138765   -0.000117
  28 H :    0.078554    0.000005
  29 H :    0.044993    0.000023
  30 H :    0.155965   -0.000108
  31 H :    0.099770    0.000025
Sum of atomic charges         :   -2.0000000

LOEWDIN ATOMIC CHARGES AND SPIN POPULATIONS
-------------------------------------------
   0 V :   -0.235592    1.155682
   1 S :    0.084666   -0.016407
   2 S :    0.085091   -0.016916
   3 S :    0.083493   -0.016926
   4 S :    0.084924   -0.016154
   5 O :   -0.350254   -0.125301
   6 C :   -0.544115    0.009014
   7 C :   -0.558925    0.010753
   8 C :   -0.559115    0.010635
   9 C :   -0.542813    0.009121
  10 S :    0.333775   -0.001230
  11 S :    0.336496   -0.000829
  12 S :    0.333086   -0.001252
  13 S :    0.336341   -0.000829
  14 C :   -0.294804    0.000123
  15 C :   -0.292336    0.000262
  16 C :   -0.292492    0.000236
  17 C :   -0.295096    0.000130
  18 C :   -0.185191   -0.000037
  19 H :    0.068880   -0.000029
  20 H :    0.047794    0.000016
  21 H :    0.046786    0.000015
  22 H :    0.053618    0.000010
  23 H :    0.047535   -0.000003
  24 H :    0.064199   -0.000030
  25 C :   -0.185294   -0.000041
  26 H :    0.047593    0.000000
  27 H :    0.063934   -0.000032
  28 H :    0.053696    0.000007
  29 H :    0.046792    0.000016
  30 H :    0.069461   -0.000029
  31 H :    0.047868    0.000024

  Mayer bond orders larger than 0.100000
B(  0-V ,  1-S ) :   0.8142 B(  0-V ,  2-S ) :   0.7623 B(  0-V ,  3-S ) :   0.7601
B(  0-V ,  4-S ) :   0.8134 B(  0-V ,  5-O ) :   2.1088 B(  1-S ,  8-C ) :   1.1149
B(  2-S ,  6-C ) :   1.1530 B(  3-S ,  9-C ) :   1.1545 B(  4-S ,  7-C ) :   1.1162
B(  6-C ,  7-C ) :   1.5202 B(  6-C , 10-S ) :   0.9548 B(  7-C , 11-S ) :   0.9528
B(  8-C ,  9-C ) :   1.5209 B(  8-C , 13-S ) :   0.9524 B(  9-C , 12-S ) :   0.9550
B( 10-S , 16-C ) :   1.0021 B( 11-S , 14-C ) :   1.0068 B( 12-S , 15-C ) :   1.0021
B( 13-S , 17-C ) :   1.0076 B( 14-C , 18-C ) :   0.8798 B( 14-C , 23-H ) :   0.9684
B( 14-C , 24-H ) :   0.9751 B( 15-C , 25-C ) :   0.8785 B( 15-C , 30-H ) :   0.9748
B( 15-C , 31-H ) :   0.9713 B( 16-C , 18-C ) :   0.8784 B( 16-C , 19-H ) :   0.9748
B( 16-C , 20-H ) :   0.9712 B( 17-C , 25-C ) :   0.8803 B( 17-C , 26-H ) :   0.9683
B( 17-C , 27-H ) :   0.9747 B( 18-C , 21-H ) :   0.9529 B( 18-C , 22-H ) :   0.9735
B( 25-C , 28-H ) :   0.9735 B( 25-C , 29-H ) :   0.9531

FINAL SINGLE POINT ENERGY     -4592.722449022036

DIPOLE MOMENT
-------------
                                X             Y             Z
Electronic contribution:    -22.45433      -9.08416      11.20032
Nuclear contribution   :     25.02549      10.13288     -12.48212
                        -----------------------------------------
Total Dipole Moment    :      2.57116       1.04872      -1.28181
                        -----------------------------------------
Magnitude (a.u.)       :      3.05839
Magnitude (Debye)      :      7.77380

Rotational constants in cm-1:     0.012736     0.002547     0.002430
Rotational constants in MHz :   381.811566    76.353633    72.854941

                             ****ORCA TERMINATED NORMALLY****
TOTAL RUN TIME: 0 days 0 hours 42 minutes 42 seconds 305 msec
