                         Program Version 5.0.4 -  RELEASE  -
|  1> ! nofrozencore ReducedPop printbasis
|  2> ! B3LYP TZVP
|  3>
|  4> %basis
|  5> newgto V "CP(PPP)" end
|  6> end
|  7>
|  8> %pal
|  9> nprocs 8
| 10> end
| 11>
| 12> % sym SymThresh 1e-2 end
| 13> * xyz -2 2
| 14> V 0.603475374818163 0.2990315933813217 0.8903801379550788
| 15> S -0.8325481514409234 -1.5731074081319965 1.568018314674141
| 16> S 1.8798597560499348 -1.3639992458219348 -0.3699038093046247
| 17> S -1.5009244879466577 1.559180127694704 0.9536873941208353
| 18> S 1.2284042851410835 1.7745728768003537 -0.9602808260787772
| 19> O 1.502403372602402 0.7270004730163638 2.1415997946619045
| 20> C 2.8844398808300498 -0.36882241264686577 -1.4328497166815752
| 21> C 2.611860708398786 0.9398725371251456 -1.6798210734639365
| 22> C -2.38136779620515 -0.8288958616498528 1.999769194992956
| 23> C -2.6601018536336882 0.47663967677933533 1.74392304747294
| 24> S 4.228740784261746 -1.2407779019921434 -2.2621131569623842
| 25> S 3.569758423398007 1.911193315830784 -2.86073837174648
| 26> S -4.20892246707134 1.2707391773711916 2.2195174487818496
| 27> S -3.5243232477201776 -1.937412615522593 2.849305605467234
| 28> C 3.049753054821393 1.1438756509146772 -4.461991862047498
| 29> C -5.504101489418828 0.401038229532807 1.2281611489904865
| 30> C 3.5729735211229574 -1.3536724917710174 -3.9882954068618903
| 31> C -4.976916929743289 -2.0717909667308563 1.7146086565447085
| 32> C 3.795426677050819 -0.12692805148126587 -4.8757628643193
| 33> H 2.5093972423839532 -1.5949874338702519 -3.9053267523329973
| 34> H 4.079323656884475 -2.2166739659468915 -4.433070521483381
| 35> H 3.4724518513081106 -0.38884266823473906 -5.899777889367442
| 36> H 4.871679727360705 0.08863508150094683 -4.927648364910085
| 37> H 3.2111132885604463 1.918655761866764 -5.218678261878861
| 38> H 1.973146525416061 0.9651995136483535 -4.389439702835033
| 39> C -5.9959037706127605 -0.9348584200150536 1.784380583959496
| 40> H -5.458443612579213 -3.011441341224531 2.0045233467605166
| 41> H -4.592033117161312 -2.1932377311749454 0.697326105834522
| 42> H -6.318719090110331 -0.7987449879528836 2.82550387337912
| 43> H -6.887451249857885 -1.2388469633806058 1.2062155798126226
| 44> H -5.119044898629876 0.2850861177636598 0.21030046881993147
| 45> H -6.337411682687754 1.1103428439236545 1.1920666396025437
| 46> *
| 47>
| 48> % eprnmr
| 49> gtensor true
| 50> Nuclei = all H {aiso,adip,aorb,fgrad,rho}
| 51> Nuclei = all V {aiso,adip,aorb,fgrad,rho}
| 52> end
| 53>
| 54>                          ****END OF INPUT****

CARTESIAN COORDINATES (ANGSTROEM)
---------------------------------
  V      0.604160    0.299347    0.891297
  S     -0.831864   -1.572792    1.568935
  S      1.880544   -1.363684   -0.368987
  S     -1.500240    1.559495    0.954605
  S      1.229089    1.774888   -0.959364
  O      1.503088    0.727315    2.142517
  C      2.885124   -0.368507   -1.431933
  C      2.612545    0.940188   -1.678904
  C     -2.380683   -0.828581    2.000686
  C     -2.659417    0.476955    1.744840
  S      4.229425   -1.240463   -2.261196
  S      3.570443    1.911508   -2.859821
  S     -4.208238    1.271054    2.220435
  S     -3.523639   -1.937098    2.850223
  C      3.050437    1.144191   -4.461075
  C     -5.503417    0.401353    1.229078
  C      3.573658   -1.353357   -3.987378
  C     -4.976233   -2.071476    1.715526
  C      3.796111   -0.126613   -4.874846
  H      2.510082   -1.594672   -3.904410
  H      4.080008   -2.216359   -4.432153
  H      3.473136   -0.388528   -5.898861
  H      4.872364    0.088950   -4.926731
  H      3.211798    1.918971   -5.217761
  H      1.973831    0.965515   -4.388523
  C     -5.995219   -0.934543    1.785298
  H     -5.457759   -3.011126    2.005440
  H     -4.591349   -2.192923    0.698243
  H     -6.318035   -0.798430    2.826421
  H     -6.886767   -1.238532    1.207133
  H     -5.118360    0.285401    0.211218
  H     -6.336727    1.110658    1.192984

 Total Charge           Charge          ....   -2
 Multiplicity           Mult            ....    2
 Number of Electrons    NEL             ....  233
 Basis Dimension        Dim             ....  517

ORBITAL ENERGIES
----------------
                 SPIN UP ORBITALS
  NO   OCC          E(Eh)            E(eV)
   0   1.0000    -196.640317     -5350.8551
   1   1.0000     -88.677974     -2413.0504
   2   1.0000     -88.677970     -2413.0502
   3   1.0000     -88.675446     -2412.9816
   4   1.0000     -88.675386     -2412.9799
   5   1.0000     -88.612121     -2411.2584
   6   1.0000     -88.612038     -2411.2562
   7   1.0000     -88.612036     -2411.2561
   8   1.0000     -88.612030     -2411.2559
   9   1.0000     -22.016073      -599.0878
  10   1.0000     -18.856864      -513.1214
  11   1.0000     -18.522929      -504.0345
  12   1.0000     -18.517111      -503.8762
  13   1.0000     -18.517075      -503.8752
  14   1.0000     -10.017400      -272.5873
  15   1.0000     -10.017391      -272.5871
  16   1.0000     -10.014200      -272.5002
  17   1.0000     -10.014186      -272.4998
  18   1.0000     -10.006494      -272.2905
  19   1.0000     -10.004685      -272.2413
  20   1.0000      -9.992706      -271.9153
  21   1.0000      -9.991992      -271.8959
  22   1.0000      -9.991385      -271.8794
  23   1.0000      -9.990665      -271.8598
  24   1.0000      -7.731494      -210.3846
  25   1.0000      -7.731484      -210.3844
  26   1.0000      -7.729103      -210.3196
  27   1.0000      -7.729054      -210.3183
  28   1.0000      -7.666508      -208.6163
  29   1.0000      -7.666445      -208.6146
  30   1.0000      -7.666418      -208.6138
  31   1.0000      -7.666373      -208.6126
  32   1.0000      -5.696771      -155.0170
  33   1.0000      -5.696769      -155.0170
  34   1.0000      -5.694322      -154.9504
  35   1.0000      -5.694274      -154.9491
  36   1.0000      -5.692795      -154.9088
  37   1.0000      -5.692790      -154.9087
  38   1.0000      -5.690522      -154.8470
  39   1.0000      -5.690473      -154.8457
  40   1.0000      -5.686270      -154.7313
  41   1.0000      -5.686264      -154.7311
  42   1.0000      -5.683823      -154.6647
  43   1.0000      -5.683770      -154.6632
  44   1.0000      -5.631344      -153.2367
  45   1.0000      -5.631313      -153.2358
  46   1.0000      -5.631280      -153.2349
  47   1.0000      -5.631263      -153.2345
  48   1.0000      -5.625002      -153.0641
  49   1.0000      -5.624929      -153.0621
  50   1.0000      -5.624800      -153.0586
  51   1.0000      -5.624778      -153.0580
  52   1.0000      -5.624459      -153.0493
  53   1.0000      -5.624404      -153.0478
  54   1.0000      -5.624399      -153.0477
  55   1.0000      -5.624360      -153.0466
  56   1.0000      -2.409624       -65.5692
  57   1.0000      -1.450789       -39.4780
  58   1.0000      -1.439398       -39.1680
  59   1.0000      -1.438340       -39.1392
  60   1.0000      -0.644065       -17.5259
  61   1.0000      -0.642384       -17.4802
  62   1.0000      -0.617791       -16.8109
  63   1.0000      -0.594034       -16.1645
  64   1.0000      -0.592452       -16.1214
  65   1.0000      -0.576313       -15.6823
  66   1.0000      -0.574217       -15.6252
  67   1.0000      -0.491210       -13.3665
  68   1.0000      -0.489074       -13.3084
  69   1.0000      -0.488039       -13.2802
  70   1.0000      -0.485066       -13.1993
  71   1.0000      -0.422927       -11.5084
  72   1.0000      -0.420049       -11.4301
  73   1.0000      -0.412454       -11.2235
  74   1.0000      -0.407165       -11.0795
  75   1.0000      -0.376867       -10.2551
  76   1.0000      -0.372359       -10.1324
  77   1.0000      -0.294116        -8.0033
  78   1.0000      -0.290661        -7.9093
  79   1.0000      -0.279087        -7.5944
  80   1.0000      -0.275236        -7.4896
  81   1.0000      -0.260585        -7.0909
  82   1.0000      -0.255442        -6.9509
  83   1.0000      -0.242920        -6.6102
  84   1.0000      -0.238045        -6.4775
  85   1.0000      -0.195245        -5.3129
  86   1.0000      -0.193069        -5.2537
  87   1.0000      -0.191966        -5.2237
  88   1.0000      -0.190199        -5.1756
  89   1.0000      -0.186456        -5.0737
  90   1.0000      -0.182885        -4.9765
  91   1.0000      -0.180568        -4.9135
  92   1.0000      -0.150723        -4.1014
  93   1.0000      -0.149704        -4.0736
  94   1.0000      -0.143512        -3.9052
  95   1.0000      -0.143248        -3.8980
  96   1.0000      -0.141527        -3.8511
  97   1.0000      -0.096858        -2.6356
  98   1.0000      -0.096364        -2.6222
  99   1.0000      -0.089286        -2.4296
 100   1.0000      -0.083398        -2.2694
 101   1.0000      -0.081615        -2.2209
 102   1.0000      -0.079360        -2.1595
 103   1.0000      -0.069153        -1.8818
 104   1.0000      -0.050056        -1.3621
 105   1.0000      -0.038324        -1.0428
 106   1.0000      -0.038274        -1.0415
 107   1.0000      -0.035276        -0.9599
 108   1.0000      -0.032004        -0.8709
 109   1.0000      -0.013329        -0.3627
 110   1.0000      -0.004551        -0.1238
 111   1.0000      -0.002661        -0.0724
 112   1.0000       0.005467         0.1488
 113   1.0000       0.011932         0.3247
 114   1.0000       0.015959         0.4343
 115   1.0000       0.033740         0.9181
 116   1.0000       0.059731         1.6254
 117   0.0000       0.187951         5.1144
 118   0.0000       0.195354         5.3159
 119   0.0000       0.195728         5.3260
 120   0.0000       0.196900         5.3579
 121   0.0000       0.211126         5.7450

                 SPIN DOWN ORBITALS
  NO   OCC          E(Eh)            E(eV)
   0   1.0000    -196.640458     -5350.8589
   1   1.0000     -88.677987     -2413.0507
   2   1.0000     -88.677982     -2413.0506
   3   1.0000     -88.675460     -2412.9819
   4   1.0000     -88.675400     -2412.9803
   5   1.0000     -88.612278     -2411.2627
   6   1.0000     -88.612194     -2411.2604
   7   1.0000     -88.612191     -2411.2603
   8   1.0000     -88.612183     -2411.2601
   9   1.0000     -22.001392      -598.6883
  10   1.0000     -18.860462      -513.2193
  11   1.0000     -18.517785      -503.8946
  12   1.0000     -18.501611      -503.4544
  13   1.0000     -18.500934      -503.4360
  14   1.0000     -10.017400      -272.5873
  15   1.0000     -10.017391      -272.5871
  16   1.0000     -10.014193      -272.5000
  17   1.0000     -10.014179      -272.4997
  18   1.0000     -10.006493      -272.2905
  19   1.0000     -10.004685      -272.2413
  20   1.0000      -9.992458      -271.9086
  21   1.0000      -9.991746      -271.8892
  22   1.0000      -9.991127      -271.8724
  23   1.0000      -9.990409      -271.8529
  24   1.0000      -7.731507      -210.3850
  25   1.0000      -7.731498      -210.3848
  26   1.0000      -7.729118      -210.3200
  27   1.0000      -7.729068      -210.3186
  28   1.0000      -7.666654      -208.6203
  29   1.0000      -7.666591      -208.6186
  30   1.0000      -7.666560      -208.6177
  31   1.0000      -7.666515      -208.6165
  32   1.0000      -5.696786      -155.0174
  33   1.0000      -5.696785      -155.0174
  34   1.0000      -5.694340      -154.9509
  35   1.0000      -5.694291      -154.9495
  36   1.0000      -5.692814      -154.9094
  37   1.0000      -5.692810      -154.9092
  38   1.0000      -5.690543      -154.8475
  39   1.0000      -5.690494      -154.8462
  40   1.0000      -5.686285      -154.7317
  41   1.0000      -5.686279      -154.7315
  42   1.0000      -5.683842      -154.6652
  43   1.0000      -5.683788      -154.6637
  44   1.0000      -5.631512      -153.2412
  45   1.0000      -5.631481      -153.2404
  46   1.0000      -5.631448      -153.2395
  47   1.0000      -5.631431      -153.2390
  48   1.0000      -5.625401      -153.0749
  49   1.0000      -5.625331      -153.0730
  50   1.0000      -5.625176      -153.0688
  51   1.0000      -5.625155      -153.0682
  52   1.0000      -5.624578      -153.0526
  53   1.0000      -5.624523      -153.0510
  54   1.0000      -5.624521      -153.0510
  55   1.0000      -5.624480      -153.0499
  56   1.0000      -2.365418       -64.3663
  57   1.0000      -1.431905       -38.9641
  58   1.0000      -1.378004       -37.4974
  59   1.0000      -1.377342       -37.4794
  60   1.0000      -0.644024       -17.5248
  61   1.0000      -0.642323       -17.4785
  62   1.0000      -0.625525       -17.0214
  63   1.0000      -0.593843       -16.1593
  64   1.0000      -0.592249       -16.1159
  65   1.0000      -0.576314       -15.6823
  66   1.0000      -0.574206       -15.6249
  67   1.0000      -0.491236       -13.3672
  68   1.0000      -0.489104       -13.3092
  69   1.0000      -0.488044       -13.2803
  70   1.0000      -0.485076       -13.1996
  71   1.0000      -0.423162       -11.5148
  72   1.0000      -0.420353       -11.4384
  73   1.0000      -0.412461       -11.2236
  74   1.0000      -0.407253       -11.0819
  75   1.0000      -0.376824       -10.2539
  76   1.0000      -0.372372       -10.1328
  77   1.0000      -0.294102        -8.0029
  78   1.0000      -0.290640        -7.9087
  79   1.0000      -0.279073        -7.5940
  80   1.0000      -0.275212        -7.4889
  81   1.0000      -0.260392        -7.0856
  82   1.0000      -0.255398        -6.9497
  83   1.0000      -0.242833        -6.6078
  84   1.0000      -0.237953        -6.4750
  85   1.0000      -0.194813        -5.3011
  86   1.0000      -0.193035        -5.2527
  87   1.0000      -0.191908        -5.2221
  88   1.0000      -0.190165        -5.1747
  89   1.0000      -0.186402        -5.0723
  90   1.0000      -0.182791        -4.9740
  91   1.0000      -0.178505        -4.8574
  92   1.0000      -0.150049        -4.0830
  93   1.0000      -0.149414        -4.0658
  94   1.0000      -0.143217        -3.8971
  95   1.0000      -0.143044        -3.8924
  96   1.0000      -0.141423        -3.8483
  97   1.0000      -0.095882        -2.6091
  98   1.0000      -0.095353        -2.5947
  99   1.0000      -0.089389        -2.4324
 100   1.0000      -0.083389        -2.2691
 101   1.0000      -0.081776        -2.2252
 102   1.0000      -0.080669        -2.1951
 103   1.0000      -0.070481        -1.9179
 104   1.0000      -0.045908        -1.2492
 105   1.0000      -0.038481        -1.0471
 106   1.0000      -0.037498        -1.0204
 107   1.0000      -0.034383        -0.9356
 108   1.0000      -0.031878        -0.8674
 109   1.0000      -0.012434        -0.3384
 110   1.0000      -0.005510        -0.1499
 111   1.0000      -0.002070        -0.0563
 112   1.0000       0.006467         0.1760
 113   1.0000       0.012769         0.3475
 114   1.0000       0.034066         0.9270
 115   1.0000       0.058395         1.5890
 116   0.0000       0.185633         5.0513
 117   0.0000       0.189243         5.1496
 118   0.0000       0.195815         5.3284
 119   0.0000       0.195988         5.3331
 120   0.0000       0.197197         5.3660

MULLIKEN ATOMIC CHARGES AND SPIN POPULATIONS
--------------------------------------------
   0 V :    0.448705    1.198207
   1 S :   -0.256889   -0.022304
   2 S :   -0.253233   -0.025014
   3 S :   -0.257046   -0.022299
   4 S :   -0.253281   -0.025011
   5 O :   -0.507677   -0.139420
   6 C :   -0.113651    0.009385
   7 C :   -0.112765    0.009507
   8 C :   -0.116978    0.008274
   9 C :   -0.117632    0.008379
  10 S :   -0.048264   -0.000438
  11 S :   -0.048167   -0.000464
  12 S :   -0.040664    0.000010
  13 S :   -0.040746   -0.000028
  14 C :   -0.337692    0.000574
  15 C :   -0.339090    0.000069
  16 C :   -0.337024    0.000549
  17 C :   -0.338962    0.000081
  18 C :   -0.086541    0.000135
  19 H :    0.149944   -0.000150
  20 H :    0.101459    0.000080
  21 H :    0.046053    0.000028
  22 H :    0.075900   -0.000031
  23 H :    0.101457    0.000083
  24 H :    0.150249   -0.000152
  25 C :   -0.080042   -0.000024
  26 H :    0.102211   -0.000031
  27 H :    0.142758   -0.000053
  28 H :    0.080129    0.000071
  29 H :    0.042333    0.000067
  30 H :    0.142910   -0.000050
  31 H :    0.102236   -0.000031
Sum of atomic charges         :   -2.0000000

LOEWDIN ATOMIC CHARGES AND SPIN POPULATIONS
-------------------------------------------
   0 V :   -0.241679    1.152363
   1 S :    0.084941   -0.015116
   2 S :    0.088844   -0.016603
   3 S :    0.084744   -0.015108
   4 S :    0.088613   -0.016628
   5 O :   -0.352537   -0.124889
   6 C :   -0.551479    0.010012
   7 C :   -0.550993    0.010059
   8 C :   -0.552728    0.009690
   9 C :   -0.553079    0.009820
  10 S :    0.332414   -0.001133
  11 S :    0.332283   -0.001145
  12 S :    0.339881   -0.000915
  13 S :    0.339811   -0.000940
  14 C :   -0.291657    0.000289
  15 C :   -0.295558    0.000022
  16 C :   -0.291727    0.000276
  17 C :   -0.295657    0.000026
  18 C :   -0.183983   -0.000048
  19 H :    0.067784   -0.000027
  20 H :    0.046671    0.000042
  21 H :    0.047589    0.000033
  22 H :    0.053205   -0.000002
  23 H :    0.046685    0.000044
  24 H :    0.067883   -0.000027
  25 C :   -0.186223   -0.000025
  26 H :    0.047834   -0.000027
  27 H :    0.064606   -0.000026
  28 H :    0.054469    0.000027
  29 H :    0.046571    0.000008
  30 H :    0.064659   -0.000025
  31 H :    0.047813   -0.000027

  Mayer bond orders larger than 0.100000
B(  0-V ,  1-S ) :   0.7849 B(  0-V ,  2-S ) :   0.7945 B(  0-V ,  3-S ) :   0.7866
B(  0-V ,  4-S ) :   0.7919 B(  0-V ,  5-O ) :   2.1070 B(  1-S ,  8-C ) :   1.1285
B(  2-S ,  6-C ) :   1.1405 B(  3-S ,  9-C ) :   1.1279 B(  4-S ,  7-C ) :   1.1419
B(  6-C ,  7-C ) :   1.5241 B(  6-C , 10-S ) :   0.9539 B(  7-C , 11-S ) :   0.9535
B(  8-C ,  9-C ) :   1.5174 B(  8-C , 13-S ) :   0.9562 B(  9-C , 12-S ) :   0.9565
B( 10-S , 16-C ) :   1.0027 B( 11-S , 14-C ) :   1.0028 B( 12-S , 15-C ) :   1.0067
B( 13-S , 17-C ) :   1.0069 B( 14-C , 18-C ) :   0.8782 B( 14-C , 23-H ) :   0.9686
B( 14-C , 24-H ) :   0.9748 B( 15-C , 25-C ) :   0.8776 B( 15-C , 30-H ) :   0.9747
B( 15-C , 31-H ) :   0.9715 B( 16-C , 18-C ) :   0.8782 B( 16-C , 19-H ) :   0.9748
B( 16-C , 20-H ) :   0.9685 B( 17-C , 25-C ) :   0.8777 B( 17-C , 26-H ) :   0.9714
B( 17-C , 27-H ) :   0.9745 B( 18-C , 21-H ) :   0.9537 B( 18-C , 22-H ) :   0.9741
B( 25-C , 28-H ) :   0.9728 B( 25-C , 29-H ) :   0.9506

FINAL SINGLE POINT ENERGY     -4592.723482937997

DIPOLE MOMENT
-------------
                                X             Y             Z
Electronic contribution:     14.77441       7.19146      21.05518
Nuclear contribution   :    -16.48152      -8.01887     -23.47417
                        -----------------------------------------
Total Dipole Moment    :     -1.70711      -0.82741      -2.41899
                        -----------------------------------------
Magnitude (a.u.)       :      3.07414
Magnitude (Debye)      :      7.81385

Rotational constants in cm-1:     0.012764     0.002547     0.002430
Rotational constants in MHz :   382.664166    76.368327    72.862310

                             ****ORCA TERMINATED NORMALLY****
TOTAL RUN TIME: 0 days 0 hours 27 minutes 43 seconds 996 msec
