                         Program Version 5.0.4 -  RELEASE  -
|  1> ! nofrozencore ReducedPop printbasis
|  2> ! B3LYP TZVP
|  3>
|  4> %basis
|  5> newgto V "CP(PPP)" end
|  6> end
|  7>
|  8> %pal
|  9> nprocs 8
| 10> end
| 11>
| 12> % sym SymThresh 1e-2 end
| 13> * xyz -2 2
| 14> V 0.9838405343494974 0.5235082937932559 0.04601583694304821
| 15> S -0.3992880044406713 1.684616816215599 -1.6105924326428476
| 16> S -0.48778920114023067 1.5335480179955454 1.7228429934233445
| 17> S 1.124938034623468 -1.1962522609336115 -1.692274265612614
| 18> S 1.0638445399057277 -1.3328206003962433 1.6444950422601365
| 19> O 2.390734924321086 1.2759740571389904 0.10703580879646983
| 20> C -0.2226137466611981 0.5561739471829891 3.172302665218021
| 21> C 0.4229939747742438 -0.6393565814068969 3.139157008707333
| 22> C -0.06105936184691612 0.8309520934011636 -3.1211952753054515
| 23> C 0.574536922507908 -0.3702091291997395 -3.1555732651862662
| 24> S -0.9015466168692458 1.2554154989920538 4.690673924475688
| 25> S 0.6643897065123192 -1.6566862475038588 4.609698976672779
| 26> S 0.8886020790253794 -1.262803125873485 -4.6917466840337765
| 27> S -0.6571638078428214 1.6604564358029135 -4.608834827028433
| 28> C -1.0517983821858403 -2.1845802603458533 5.0446984857853
| 29> C -0.8074457991040815 -1.7349890963664465 -5.248565996797955
| 30> C -2.279391768694969 0.09893684294584228 5.110357830911113
| 31> C -2.0153045638684484 0.5503398174984183 -5.184715240082507
| 32> C -1.9088329494485665 -1.1946384353926744 5.812763120721162
| 33> H -2.824068295890653 -0.14905608370711604 4.118378689191313
| 34> H -2.917645166384574 0.6469250540704335 5.687792308644427
| 35> H -2.7408729679996378 -1.6510763219135152 6.1302011499078395
| 36> H -1.0936109711089175 -0.795093137462255 7.163168931574953
| 37> H -0.9361097323232422 -3.043554406995922 5.579674068773679
| 38> H -1.5812176947497747 -2.4550980803332028 4.051644677626535
| 39> C -1.5899754090778027 -0.6646131389380848 -6.007636356922557
| 40> H -2.660457652275982 1.1925113181035836 -5.791151289499698
| 41> H -2.5818374107420987 0.24818407656560199 -4.299698260195919
| 42> H -0.9940538339363044 -0.32562497644090443 -6.872124075680124
| 43> H -2.5000467957040287 -1.1341820034772516 -6.41100776814132
| 44> H -1.3553717481093732 -2.069968729653538 -4.3636756045546585
| 45> H -0.6560832118047902 -2.6030949685018463 -5.896464897614357
| 46> *
| 47>
| 48> % eprnmr
| 49> gtensor true
| 50> Nuclei = all H {aiso,adip,aorb,fgrad,rho}
| 51> Nuclei = all V {aiso,adip,aorb,fgrad,rho}
| 52> end
| 53>
| 54>                          ****END OF INPUT****

CARTESIAN COORDINATES (ANGSTROEM)
---------------------------------
  V      0.984880    0.524066    0.046146
  S     -0.398249    1.685175   -1.610462
  S     -0.486750    1.534106    1.722973
  S      1.125977   -1.195694   -1.692144
  S      1.064884   -1.332263    1.644625
  O      2.391774    1.276532    0.107166
  C     -0.221574    0.556732    3.172433
  C      0.424033   -0.638799    3.139287
  C     -0.060020    0.831510   -3.121065
  C      0.575576   -0.369651   -3.155443
  S     -0.900507    1.255973    4.690804
  S      0.665429   -1.656128    4.609829
  S      0.889642   -1.262245   -4.691616
  S     -0.656124    1.661014   -4.608704
  C     -1.050759   -2.184022    5.044829
  C     -0.806406   -1.734431   -5.248436
  C     -2.278352    0.099495    5.110488
  C     -2.014265    0.550898   -5.184585
  C     -1.907794   -1.194081    5.812894
  H     -2.823029   -0.148498    4.118509
  H     -2.916606    0.647483    5.687923
  H     -2.739834   -1.650518    6.130332
  H     -1.092572   -0.794535    7.163299
  H     -0.935070   -3.042997    5.579804
  H     -1.580178   -2.454540    4.051775
  C     -1.588936   -0.664055   -6.007506
  H     -2.659418    1.193069   -5.791021
  H     -2.580798    0.248742   -4.299568
  H     -0.993014   -0.325067   -6.871994
  H     -2.499007   -1.133624   -6.410877
  H     -1.354332   -2.069411   -4.363545
  H     -0.655044   -2.602537   -5.896334

 Total Charge           Charge          ....   -2
 Multiplicity           Mult            ....    2
 Number of Electrons    NEL             ....  233
 Basis Dimension        Dim             ....  517

ORBITAL ENERGIES
----------------
                 SPIN UP ORBITALS
  NO   OCC          E(Eh)            E(eV)
   0   1.0000    -196.641278     -5350.8812
   1   1.0000     -88.678962     -2413.0772
   2   1.0000     -88.678936     -2413.0765
   3   1.0000     -88.677229     -2413.0301
   4   1.0000     -88.677219     -2413.0298
   5   1.0000     -88.613641     -2411.2998
   6   1.0000     -88.613629     -2411.2994
   7   1.0000     -88.613005     -2411.2825
   8   1.0000     -88.612895     -2411.2795
   9   1.0000     -22.017079      -599.1152
  10   1.0000     -18.858359      -513.1620
  11   1.0000     -18.523905      -504.0611
  12   1.0000     -18.518129      -503.9039
  13   1.0000     -18.518088      -503.9028
  14   1.0000     -10.034811      -273.0611
  15   1.0000     -10.019290      -272.6388
  16   1.0000     -10.019044      -272.6321
  17   1.0000     -10.016148      -272.5532
  18   1.0000     -10.016116      -272.5524
  19   1.0000     -10.005974      -272.2764
  20   1.0000      -9.993789      -271.9448
  21   1.0000      -9.993065      -271.9251
  22   1.0000      -9.992721      -271.9158
  23   1.0000      -9.992006      -271.8963
  24   1.0000      -7.732487      -210.4117
  25   1.0000      -7.732442      -210.4104
  26   1.0000      -7.730886      -210.3681
  27   1.0000      -7.730877      -210.3679
  28   1.0000      -7.668051      -208.6583
  29   1.0000      -7.668022      -208.6575
  30   1.0000      -7.667417      -208.6410
  31   1.0000      -7.667340      -208.6389
  32   1.0000      -5.697810      -155.0453
  33   1.0000      -5.697764      -155.0440
  34   1.0000      -5.696130      -154.9996
  35   1.0000      -5.696126      -154.9995
  36   1.0000      -5.693862      -154.9379
  37   1.0000      -5.693824      -154.9368
  38   1.0000      -5.692233      -154.8935
  39   1.0000      -5.692230      -154.8935
  40   1.0000      -5.687148      -154.7552
  41   1.0000      -5.687109      -154.7541
  42   1.0000      -5.685636      -154.7140
  43   1.0000      -5.685628      -154.7138
  44   1.0000      -5.632901      -153.2790
  45   1.0000      -5.632877      -153.2784
  46   1.0000      -5.632257      -153.2615
  47   1.0000      -5.632178      -153.2594
  48   1.0000      -5.626476      -153.1042
  49   1.0000      -5.626449      -153.1035
  50   1.0000      -5.626056      -153.0928
  51   1.0000      -5.626038      -153.0923
  52   1.0000      -5.625868      -153.0877
  53   1.0000      -5.625782      -153.0853
  54   1.0000      -5.625405      -153.0750
  55   1.0000      -5.625320      -153.0727
  56   1.0000      -2.410784       -65.6008
  57   1.0000      -1.452144       -39.5149
  58   1.0000      -1.440567       -39.1998
  59   1.0000      -1.439486       -39.1704
  60   1.0000      -0.646945       -17.6043
  61   1.0000      -0.644479       -17.5372
  62   1.0000      -0.619350       -16.8534
  63   1.0000      -0.596612       -16.2347
  64   1.0000      -0.594341       -16.1728
  65   1.0000      -0.580820       -15.8049
  66   1.0000      -0.576653       -15.6915
  67   1.0000      -0.493846       -13.4382
  68   1.0000      -0.492928       -13.4132
  69   1.0000      -0.490987       -13.3604
  70   1.0000      -0.487811       -13.2740
  71   1.0000      -0.427024       -11.6199
  72   1.0000      -0.422058       -11.4848
  73   1.0000      -0.413486       -11.2515
  74   1.0000      -0.407995       -11.1021
  75   1.0000      -0.375554       -10.2193
  76   1.0000      -0.368952       -10.0397
  77   1.0000      -0.302664        -8.2359
  78   1.0000      -0.293409        -7.9841
  79   1.0000      -0.278507        -7.5786
  80   1.0000      -0.275757        -7.5037
  81   1.0000      -0.261253        -7.1091
  82   1.0000      -0.255659        -6.9568
  83   1.0000      -0.241757        -6.5785
  84   1.0000      -0.239739        -6.5236
  85   1.0000      -0.207846        -5.6558
  86   1.0000      -0.198790        -5.4093
  87   1.0000      -0.194041        -5.2801
  88   1.0000      -0.193046        -5.2530
  89   1.0000      -0.185160        -5.0385
  90   1.0000      -0.183178        -4.9845
  91   1.0000      -0.159926        -4.3518
  92   1.0000      -0.152136        -4.1398
  93   1.0000      -0.151476        -4.1219
  94   1.0000      -0.144889        -3.9426
  95   1.0000      -0.143379        -3.9016
  96   1.0000      -0.117697        -3.2027
  97   1.0000      -0.098503        -2.6804
  98   1.0000      -0.098015        -2.6671
  99   1.0000      -0.090980        -2.4757
 100   1.0000      -0.084933        -2.3112
 101   1.0000      -0.083074        -2.2606
 102   1.0000      -0.081371        -2.2142
 103   1.0000      -0.071106        -1.9349
 104   1.0000      -0.051433        -1.3996
 105   1.0000      -0.039448        -1.0734
 106   1.0000      -0.039248        -1.0680
 107   1.0000      -0.036727        -0.9994
 108   1.0000      -0.033369        -0.9080
 109   1.0000      -0.014179        -0.3858
 110   1.0000      -0.005565        -0.1514
 111   1.0000      -0.004548        -0.1238
 112   1.0000       0.004898         0.1333
 113   1.0000       0.009390         0.2555
 114   1.0000       0.015076         0.4102
 115   1.0000       0.032232         0.8771
 116   1.0000       0.058410         1.5894
 117   0.0000       0.155096         4.2204
 118   0.0000       0.186910         5.0861
 119   0.0000       0.194459         5.2915
 120   0.0000       0.195813         5.3283
 121   0.0000       0.206650         5.6232

                 SPIN DOWN ORBITALS
  NO   OCC          E(Eh)            E(eV)
   0   1.0000    -196.641420     -5350.8851
   1   1.0000     -88.678975     -2413.0776
   2   1.0000     -88.678949     -2413.0769
   3   1.0000     -88.677242     -2413.0304
   4   1.0000     -88.677232     -2413.0302
   5   1.0000     -88.613800     -2411.3041
   6   1.0000     -88.613788     -2411.3038
   7   1.0000     -88.613166     -2411.2868
   8   1.0000     -88.613056     -2411.2838
   9   1.0000     -22.002409      -598.7160
  10   1.0000     -18.861946      -513.2596
  11   1.0000     -18.518773      -503.9214
  12   1.0000     -18.502631      -503.4822
  13   1.0000     -18.501959      -503.4639
  14   1.0000     -10.034810      -273.0611
  15   1.0000     -10.019287      -272.6387
  16   1.0000     -10.019041      -272.6320
  17   1.0000     -10.016144      -272.5531
  18   1.0000     -10.016112      -272.5523
  19   1.0000     -10.005973      -272.2764
  20   1.0000      -9.993534      -271.9379
  21   1.0000      -9.992811      -271.9182
  22   1.0000      -9.992466      -271.9088
  23   1.0000      -9.991753      -271.8894
  24   1.0000      -7.732501      -210.4120
  25   1.0000      -7.732455      -210.4108
  26   1.0000      -7.730900      -210.3685
  27   1.0000      -7.730891      -210.3682
  28   1.0000      -7.668199      -208.6623
  29   1.0000      -7.668170      -208.6615
  30   1.0000      -7.667566      -208.6451
  31   1.0000      -7.667489      -208.6430
  32   1.0000      -5.697826      -155.0457
  33   1.0000      -5.697780      -155.0445
  34   1.0000      -5.696147      -155.0000
  35   1.0000      -5.696142      -154.9999
  36   1.0000      -5.693882      -154.9384
  37   1.0000      -5.693844      -154.9374
  38   1.0000      -5.692253      -154.8941
  39   1.0000      -5.692250      -154.8940
  40   1.0000      -5.687165      -154.7556
  41   1.0000      -5.687125      -154.7545
  42   1.0000      -5.685653      -154.7145
  43   1.0000      -5.685645      -154.7143
  44   1.0000      -5.633073      -153.2837
  45   1.0000      -5.633048      -153.2830
  46   1.0000      -5.632429      -153.2662
  47   1.0000      -5.632350      -153.2640
  48   1.0000      -5.626865      -153.1148
  49   1.0000      -5.626838      -153.1140
  50   1.0000      -5.626260      -153.0983
  51   1.0000      -5.626191      -153.0964
  52   1.0000      -5.626176      -153.0960
  53   1.0000      -5.626172      -153.0959
  54   1.0000      -5.625541      -153.0787
  55   1.0000      -5.625455      -153.0764
  56   1.0000      -2.366594       -64.3983
  57   1.0000      -1.433309       -39.0023
  58   1.0000      -1.379146       -37.5285
  59   1.0000      -1.378510       -37.5112
  60   1.0000      -0.646899       -17.6030
  61   1.0000      -0.644429       -17.5358
  62   1.0000      -0.627033       -17.0624
  63   1.0000      -0.596414       -16.2292
  64   1.0000      -0.594141       -16.1674
  65   1.0000      -0.580816       -15.8048
  66   1.0000      -0.576648       -15.6914
  67   1.0000      -0.493869       -13.4389
  68   1.0000      -0.492921       -13.4131
  69   1.0000      -0.491021       -13.3614
  70   1.0000      -0.487826       -13.2744
  71   1.0000      -0.427291       -11.6272
  72   1.0000      -0.422358       -11.4929
  73   1.0000      -0.413497       -11.2518
  74   1.0000      -0.408098       -11.1049
  75   1.0000      -0.375530       -10.2187
  76   1.0000      -0.368945       -10.0395
  77   1.0000      -0.302659        -8.2358
  78   1.0000      -0.293392        -7.9836
  79   1.0000      -0.278487        -7.5780
  80   1.0000      -0.275738        -7.5032
  81   1.0000      -0.261031        -7.1030
  82   1.0000      -0.255599        -6.9552
  83   1.0000      -0.241675        -6.5763
  84   1.0000      -0.239708        -6.5228
  85   1.0000      -0.207803        -5.6546
  86   1.0000      -0.198559        -5.4031
  87   1.0000      -0.193784        -5.2731
  88   1.0000      -0.193011        -5.2521
  89   1.0000      -0.185109        -5.0371
  90   1.0000      -0.181047        -4.9265
  91   1.0000      -0.159722        -4.3463
  92   1.0000      -0.151453        -4.1213
  93   1.0000      -0.151167        -4.1135
  94   1.0000      -0.144684        -3.9371
  95   1.0000      -0.143193        -3.8965
  96   1.0000      -0.117611        -3.2003
  97   1.0000      -0.097529        -2.6539
  98   1.0000      -0.096997        -2.6394
  99   1.0000      -0.091088        -2.4786
 100   1.0000      -0.084938        -2.3113
 101   1.0000      -0.083274        -2.2660
 102   1.0000      -0.082600        -2.2477
 103   1.0000      -0.072438        -1.9712
 104   1.0000      -0.047265        -1.2862
 105   1.0000      -0.039524        -1.0755
 106   1.0000      -0.038615        -1.0508
 107   1.0000      -0.035682        -0.9709
 108   1.0000      -0.033338        -0.9072
 109   1.0000      -0.013269        -0.3611
 110   1.0000      -0.006909        -0.1880
 111   1.0000      -0.003526        -0.0960
 112   1.0000       0.005733         0.1560
 113   1.0000       0.010290         0.2800
 114   1.0000       0.032481         0.8839
 115   1.0000       0.057619         1.5679
 116   0.0000       0.155099         4.2204
 117   0.0000       0.184215         5.0127
 118   0.0000       0.188133         5.1194
 119   0.0000       0.195049         5.3075
 120   0.0000       0.195989         5.3331

MULLIKEN ATOMIC CHARGES AND SPIN POPULATIONS
--------------------------------------------
   0 V :    0.447204    1.199402
   1 S :   -0.253626   -0.024320
   2 S :   -0.252066   -0.023924
   3 S :   -0.253833   -0.024280
   4 S :   -0.252271   -0.023852
   5 O :   -0.505690   -0.139036
   6 C :   -0.118743    0.008858
   7 C :   -0.117580    0.008867
   8 C :   -0.115724    0.008932
   9 C :   -0.116329    0.008883
  10 S :   -0.028830   -0.000150
  11 S :   -0.028541   -0.000186
  12 S :   -0.044063   -0.000199
  13 S :   -0.044119   -0.000227
  14 C :   -0.337086    0.000280
  15 C :   -0.338456    0.000298
  16 C :   -0.334368    0.000265
  17 C :   -0.337945    0.000319
  18 C :   -0.066835    0.000191
  19 H :    0.131353   -0.000113
  20 H :    0.130700    0.000029
  21 H :    0.095395    0.000021
  22 H :   -0.058447    0.000005
  23 H :    0.131284    0.000029
  24 H :    0.132242   -0.000113
  25 C :   -0.083759    0.000137
  26 H :    0.102208    0.000029
  27 H :    0.146592   -0.000110
  28 H :    0.076850    0.000011
  29 H :    0.045505    0.000035
  30 H :    0.146611   -0.000106
  31 H :    0.102367    0.000027
Sum of atomic charges         :   -2.0000000

LOEWDIN ATOMIC CHARGES AND SPIN POPULATIONS
-------------------------------------------
   0 V :   -0.243210    1.153391
   1 S :    0.088188   -0.016486
   2 S :    0.088919   -0.016174
   3 S :    0.087957   -0.016439
   4 S :    0.088658   -0.016148
   5 O :   -0.350161   -0.124471
   6 C :   -0.553224    0.010012
   7 C :   -0.552620    0.009969
   8 C :   -0.552472    0.009959
   9 C :   -0.552932    0.009978
  10 S :    0.346522   -0.001006
  11 S :    0.346384   -0.001027
  12 S :    0.337063   -0.001045
  13 S :    0.337030   -0.001058
  14 C :   -0.296315    0.000159
  15 C :   -0.294016    0.000168
  16 C :   -0.296731    0.000150
  17 C :   -0.294074    0.000178
  18 C :   -0.148756   -0.000003
  19 H :    0.081158   -0.000042
  20 H :    0.035802    0.000006
  21 H :    0.031037    0.000007
  22 H :    0.006646    0.000004
  23 H :    0.035435    0.000007
  24 H :    0.081244   -0.000042
  25 C :   -0.185410   -0.000039
  26 H :    0.047263    0.000009
  27 H :    0.066105   -0.000028
  28 H :    0.054444    0.000010
  29 H :    0.046653    0.000018
  30 H :    0.066157   -0.000027
  31 H :    0.047254    0.000008

  Mayer bond orders larger than 0.100000
B(  0-V ,  1-S ) :   0.7894 B(  0-V ,  2-S ) :   0.7886 B(  0-V ,  3-S ) :   0.7915
B(  0-V ,  4-S ) :   0.7861 B(  0-V ,  5-O ) :   2.1092 B(  1-S ,  8-C ) :   1.1377
B(  2-S ,  6-C ) :   1.1405 B(  3-S ,  9-C ) :   1.1368 B(  4-S ,  7-C ) :   1.1418
B(  6-C ,  7-C ) :   1.5142 B(  6-C , 10-S ) :   0.9673 B(  7-C , 11-S ) :   0.9675
B(  8-C ,  9-C ) :   1.5180 B(  8-C , 13-S ) :   0.9543 B(  9-C , 12-S ) :   0.9542
B( 10-S , 16-C ) :   1.0045 B( 11-S , 14-C ) :   1.0045 B( 12-S , 15-C ) :   1.0052
B( 13-S , 17-C ) :   1.0054 B( 14-C , 18-C ) :   0.9076 B( 14-C , 23-H ) :   0.9694
B( 14-C , 24-H ) :   0.9560 B( 15-C , 25-C ) :   0.8782 B( 15-C , 30-H ) :   0.9750
B( 15-C , 31-H ) :   0.9701 B( 16-C , 18-C ) :   0.9087 B( 16-C , 19-H ) :   0.9556
B( 16-C , 20-H ) :   0.9693 B( 17-C , 25-C ) :   0.8781 B( 17-C , 26-H ) :   0.9701
B( 17-C , 27-H ) :   0.9749 B( 18-C , 21-H ) :   0.9467 B( 18-C , 22-H ) :   0.8934
B( 25-C , 28-H ) :   0.9732 B( 25-C , 29-H ) :   0.9525

FINAL SINGLE POINT ENERGY     -4592.641210952759

DIPOLE MOMENT
-------------
                                X             Y             Z
Electronic contribution:     23.18209      12.33133       0.56583
Nuclear contribution   :    -25.97356     -13.80650      -1.05962
                        -----------------------------------------
Total Dipole Moment    :     -2.79147      -1.47517      -0.49379
                        -----------------------------------------
Magnitude (a.u.)       :      3.19566
Magnitude (Debye)      :      8.12273

Rotational constants in cm-1:     0.012769     0.002548     0.002431
Rotational constants in MHz :   382.817981    76.383728    72.875746

                             ****ORCA TERMINATED NORMALLY****
TOTAL RUN TIME: 0 days 0 hours 27 minutes 53 seconds 293 msec
