                         Program Version 5.0.4 -  RELEASE  -
|  1> ! nofrozencore ReducedPop printbasis
|  2> ! B3LYP TZVP
|  3>
|  4> %basis
|  5> newgto V "CP(PPP)" end
|  6> end
|  7>
|  8> %pal
|  9> nprocs 8
| 10> end
| 11>
| 12> % sym SymThresh 1e-2 end
| 13> * xyz -2 2
| 14> V 0.19849861035098357 0.5654526139528783 0.9407372032122392
| 15> S -0.265136380051105 -1.7610453785215978 1.5555710418557294
| 16> S 2.3400863738238233 -0.2696177833470862 0.09582723782972509
| 17> S -2.2119214460372723 0.6368958452341774 0.5119062716560776
| 18> S 0.4004504828111339 2.1450318067158047 -0.9224996312621823
| 19> O 0.48072322890691865 1.3702518025352246 2.2905158927803306
| 20> C 2.903240945454111 1.0093802961217047 -0.987401607955436
| 21> C 2.0940153829083292 2.015202027265799 -1.4129522442970588
| 22> C -2.0208271309894923 -1.8061585787855856 1.7580013878919463
| 23> C -2.832689299920269 -0.8064170598613492 1.3228421672564696
| 24> S 4.624513632648001 0.8577952450949342 -1.5062248570745718
| 25> S 2.6543562166922756 3.302121126326797 -2.546589840958947
| 26> S -4.6278390769543085 -0.8651679152409195 1.4937304599268841
| 27> S -2.6526051039666503 -3.2978235231575055 2.5531343754894884
| 28> C 2.9406558300689993 2.375028071611497 -4.119204084359087
| 29> C -5.088451754065295 -2.246378742588351 0.3737392050481348
| 30> C 4.482105258875255 0.46685723239796756 -3.304678093154384
| 31> C -3.554324664151866 -4.165478848171114 1.1819085451873055
| 32> C 4.285318228861619 1.656713913073417 -4.24119405281146
| 33> H 3.661555573731918 -0.2680301349329813 -3.4151555339943944
| 34> H 5.444241418393789 -0.054221876692325574 -3.5601072321158473
| 35> H 4.378937800061 1.291773361558477 -5.277055153255635
| 36> H 5.094740458806672 2.3775701189834964 -4.082919332007087
| 37> H 2.859572209624183 3.110372491999565 -4.8876908959893814
| 38> H 2.1214598466162657 1.6841833286625774 -4.233604096967256
| 39> C -4.986362259481139 -3.653969868478492 0.922317013572028
| 40> H -3.5778932256686327 -4.884772026089063 1.38545690631981
| 41> H -3.042561004232032 -4.0789033649711826 0.42907850519145435
| 42> H -5.566394677666298 -3.72114013805584 1.8490868444702844
| 43> H -5.449837587573607 -4.346866270389503 0.20354191731913526
| 44> H -4.411878492999399 -2.109925466721591 -0.6867752145345922
| 45> H -6.451046683291162 -1.9785496366025255 0.030698938273536425
| 46> *
| 47>
| 48> % eprnmr
| 49> gtensor true
| 50> Nuclei = all H {aiso,adip,aorb,fgrad,rho}
| 51> Nuclei = all V {aiso,adip,aorb,fgrad,rho}
| 52> end
| 53>
| 54>                          ****END OF INPUT****

CARTESIAN COORDINATES (ANGSTROEM)
---------------------------------
  V      0.198777    0.566085    0.941703
  S     -0.264858   -1.760413    1.556536
  S      2.340365   -0.268986    0.096793
  S     -2.211643    0.637528    0.512872
  S      0.400729    2.145664   -0.921534
  O      0.481001    1.370884    2.291481
  C      2.903519    1.010012   -0.986436
  C      2.094294    2.015834   -1.411987
  C     -2.020549   -1.805527    1.758967
  C     -2.832411   -0.805785    1.323808
  S      4.624792    0.858427   -1.505259
  S      2.654634    3.302753   -2.545624
  S     -4.627561   -0.864536    1.494696
  S     -2.652327   -3.297192    2.554100
  C      2.940934    2.375660   -4.118239
  C     -5.088174   -2.245747    0.374705
  C      4.482383    0.467489   -3.303713
  C     -3.554047   -4.164847    1.182874
  C      4.285596    1.657346   -4.240229
  H      3.661834   -0.267398   -3.414190
  H      5.444520   -0.053590   -3.559142
  H      4.379216    1.292405   -5.276090
  H      5.095019    2.378202   -4.081954
  H      2.859850    3.111004   -4.886725
  H      2.121738    1.684815   -4.232639
  C     -4.986084   -3.653338    0.923282
  H     -3.577615   -4.884140    1.386422
  H     -3.042283   -4.078271    0.430044
  H     -5.566117   -3.720508    1.850052
  H     -5.449559   -4.346234    0.204507
  H     -4.411600   -2.109294   -0.685810
  H     -6.450769   -1.977918    0.031664

 Total Charge           Charge          ....   -2
 Multiplicity           Mult            ....    2
 Number of Electrons    NEL             ....  233
 Basis Dimension        Dim             ....  517

ORBITAL ENERGIES
----------------
                 SPIN UP ORBITALS
  NO   OCC          E(Eh)            E(eV)
   0   1.0000    -196.641161     -5350.8780
   1   1.0000     -88.680798     -2413.1272
   2   1.0000     -88.677278     -2413.0314
   3   1.0000     -88.677021     -2413.0244
   4   1.0000     -88.676944     -2413.0223
   5   1.0000     -88.613850     -2411.3055
   6   1.0000     -88.613218     -2411.2882
   7   1.0000     -88.612780     -2411.2763
   8   1.0000     -88.612773     -2411.2761
   9   1.0000     -22.016971      -599.1122
  10   1.0000     -18.858196      -513.1576
  11   1.0000     -18.523799      -504.0582
  12   1.0000     -18.518019      -503.9009
  13   1.0000     -18.517983      -503.8999
  14   1.0000     -10.057695      -273.6838
  15   1.0000     -10.020119      -272.6613
  16   1.0000     -10.011755      -272.4337
  17   1.0000     -10.007141      -272.3081
  18   1.0000     -10.005176      -272.2547
  19   1.0000      -9.994447      -271.9627
  20   1.0000      -9.992988      -271.9230
  21   1.0000      -9.992568      -271.9116
  22   1.0000      -9.991814      -271.8911
  23   1.0000      -9.966969      -271.2150
  24   1.0000      -7.734122      -210.4562
  25   1.0000      -7.730896      -210.3684
  26   1.0000      -7.730758      -210.3646
  27   1.0000      -7.730611      -210.3606
  28   1.0000      -7.668283      -208.6646
  29   1.0000      -7.667642      -208.6472
  30   1.0000      -7.667242      -208.6363
  31   1.0000      -7.667194      -208.6350
  32   1.0000      -5.699448      -155.0899
  33   1.0000      -5.696145      -155.0000
  34   1.0000      -5.695947      -154.9946
  35   1.0000      -5.695853      -154.9921
  36   1.0000      -5.695474      -154.9817
  37   1.0000      -5.692254      -154.8941
  38   1.0000      -5.692120      -154.8905
  39   1.0000      -5.691962      -154.8862
  40   1.0000      -5.688819      -154.8006
  41   1.0000      -5.685641      -154.7142
  42   1.0000      -5.685555      -154.7118
  43   1.0000      -5.685364      -154.7066
  44   1.0000      -5.633122      -153.2850
  45   1.0000      -5.632511      -153.2684
  46   1.0000      -5.632067      -153.2563
  47   1.0000      -5.632034      -153.2554
  48   1.0000      -5.626697      -153.1102
  49   1.0000      -5.626282      -153.0989
  50   1.0000      -5.626079      -153.0934
  51   1.0000      -5.625692      -153.0829
  52   1.0000      -5.625636      -153.0813
  53   1.0000      -5.625606      -153.0805
  54   1.0000      -5.625209      -153.0697
  55   1.0000      -5.625192      -153.0693
  56   1.0000      -2.410661       -65.5974
  57   1.0000      -1.452021       -39.5115
  58   1.0000      -1.440447       -39.1966
  59   1.0000      -1.439366       -39.1671
  60   1.0000      -0.657607       -17.8944
  61   1.0000      -0.644379       -17.5344
  62   1.0000      -0.619266       -16.8511
  63   1.0000      -0.603578       -16.4242
  64   1.0000      -0.594355       -16.1732
  65   1.0000      -0.579684       -15.7740
  66   1.0000      -0.576340       -15.6830
  67   1.0000      -0.503317       -13.6959
  68   1.0000      -0.491925       -13.3860
  69   1.0000      -0.489899       -13.3308
  70   1.0000      -0.487705       -13.2711
  71   1.0000      -0.437662       -11.9094
  72   1.0000      -0.422503       -11.4969
  73   1.0000      -0.411210       -11.1896
  74   1.0000      -0.401637       -10.9291
  75   1.0000      -0.375733       -10.2242
  76   1.0000      -0.371908       -10.1201
  77   1.0000      -0.319474        -8.6933
  78   1.0000      -0.293484        -7.9861
  79   1.0000      -0.279077        -7.5941
  80   1.0000      -0.278171        -7.5694
  81   1.0000      -0.261345        -7.1116
  82   1.0000      -0.256255        -6.9730
  83   1.0000      -0.241884        -6.5820
  84   1.0000      -0.239014        -6.5039
  85   1.0000      -0.206938        -5.6311
  86   1.0000      -0.195758        -5.3268
  87   1.0000      -0.193006        -5.2520
  88   1.0000      -0.192246        -5.2313
  89   1.0000      -0.184760        -5.0276
  90   1.0000      -0.182246        -4.9592
  91   1.0000      -0.163614        -4.4522
  92   1.0000      -0.152411        -4.1473
  93   1.0000      -0.150513        -4.0957
  94   1.0000      -0.145797        -3.9673
  95   1.0000      -0.143355        -3.9009
  96   1.0000      -0.139084        -3.7847
  97   1.0000      -0.098491        -2.6801
  98   1.0000      -0.097043        -2.6407
  99   1.0000      -0.090670        -2.4672
 100   1.0000      -0.084770        -2.3067
 101   1.0000      -0.082127        -2.2348
 102   1.0000      -0.081253        -2.2110
 103   1.0000      -0.070857        -1.9281
 104   1.0000      -0.051198        -1.3932
 105   1.0000      -0.039384        -1.0717
 106   1.0000      -0.039096        -1.0639
 107   1.0000      -0.036824        -1.0020
 108   1.0000      -0.033126        -0.9014
 109   1.0000      -0.014240        -0.3875
 110   1.0000      -0.005504        -0.1498
 111   1.0000      -0.004438        -0.1208
 112   1.0000       0.005094         0.1386
 113   1.0000       0.009515         0.2589
 114   1.0000       0.015204         0.4137
 115   1.0000       0.032389         0.8813
 116   1.0000       0.058572         1.5938
 117   0.0000       0.173495         4.7211
 118   0.0000       0.189498         5.1565
 119   0.0000       0.195948         5.3320
 120   0.0000       0.197064         5.3624
 121   0.0000       0.209444         5.6993

                 SPIN DOWN ORBITALS
  NO   OCC          E(Eh)            E(eV)
   0   1.0000    -196.641302     -5350.8819
   1   1.0000     -88.680811     -2413.1275
   2   1.0000     -88.677291     -2413.0318
   3   1.0000     -88.677034     -2413.0248
   4   1.0000     -88.676958     -2413.0227
   5   1.0000     -88.614010     -2411.3098
   6   1.0000     -88.613377     -2411.2926
   7   1.0000     -88.612940     -2411.2807
   8   1.0000     -88.612933     -2411.2805
   9   1.0000     -22.002303      -598.7131
  10   1.0000     -18.861774      -513.2550
  11   1.0000     -18.518669      -503.9186
  12   1.0000     -18.502530      -503.4794
  13   1.0000     -18.501849      -503.4609
  14   1.0000     -10.057691      -273.6837
  15   1.0000     -10.020116      -272.6612
  16   1.0000     -10.011752      -272.4336
  17   1.0000     -10.007140      -272.3081
  18   1.0000     -10.005175      -272.2547
  19   1.0000      -9.994192      -271.9558
  20   1.0000      -9.992735      -271.9161
  21   1.0000      -9.992313      -271.9047
  22   1.0000      -9.991561      -271.8842
  23   1.0000      -9.966965      -271.2149
  24   1.0000      -7.734136      -210.4565
  25   1.0000      -7.730910      -210.3688
  26   1.0000      -7.730772      -210.3650
  27   1.0000      -7.730625      -210.3610
  28   1.0000      -7.668431      -208.6686
  29   1.0000      -7.667790      -208.6512
  30   1.0000      -7.667391      -208.6403
  31   1.0000      -7.667343      -208.6390
  32   1.0000      -5.699465      -155.0903
  33   1.0000      -5.696162      -155.0004
  34   1.0000      -5.695964      -154.9951
  35   1.0000      -5.695870      -154.9925
  36   1.0000      -5.695494      -154.9823
  37   1.0000      -5.692274      -154.8947
  38   1.0000      -5.692141      -154.8910
  39   1.0000      -5.691982      -154.8867
  40   1.0000      -5.688834      -154.8011
  41   1.0000      -5.685657      -154.7146
  42   1.0000      -5.685572      -154.7123
  43   1.0000      -5.685381      -154.7071
  44   1.0000      -5.633293      -153.2897
  45   1.0000      -5.632681      -153.2730
  46   1.0000      -5.632239      -153.2610
  47   1.0000      -5.632205      -153.2601
  48   1.0000      -5.627085      -153.1208
  49   1.0000      -5.626468      -153.1040
  50   1.0000      -5.626419      -153.1026
  51   1.0000      -5.626084      -153.0935
  52   1.0000      -5.626028      -153.0920
  53   1.0000      -5.625739      -153.0841
  54   1.0000      -5.625345      -153.0734
  55   1.0000      -5.625328      -153.0729
  56   1.0000      -2.366483       -64.3953
  57   1.0000      -1.433195       -38.9992
  58   1.0000      -1.379040       -37.5256
  59   1.0000      -1.378390       -37.5079
  60   1.0000      -0.657581       -17.8937
  61   1.0000      -0.644330       -17.5331
  62   1.0000      -0.626921       -17.0594
  63   1.0000      -0.603399       -16.4193
  64   1.0000      -0.594158       -16.1679
  65   1.0000      -0.579648       -15.7730
  66   1.0000      -0.576335       -15.6829
  67   1.0000      -0.503293       -13.6953
  68   1.0000      -0.491949       -13.3866
  69   1.0000      -0.489936       -13.3318
  70   1.0000      -0.487720       -13.2715
  71   1.0000      -0.437924       -11.9165
  72   1.0000      -0.422781       -11.5045
  73   1.0000      -0.411249       -11.1907
  74   1.0000      -0.401734       -10.9317
  75   1.0000      -0.375711       -10.2236
  76   1.0000      -0.371921       -10.1205
  77   1.0000      -0.319464        -8.6931
  78   1.0000      -0.293467        -7.9856
  79   1.0000      -0.279050        -7.5933
  80   1.0000      -0.278153        -7.5689
  81   1.0000      -0.261134        -7.1058
  82   1.0000      -0.256211        -6.9719
  83   1.0000      -0.241790        -6.5794
  84   1.0000      -0.238950        -6.5022
  85   1.0000      -0.206868        -5.6292
  86   1.0000      -0.195295        -5.3142
  87   1.0000      -0.192954        -5.2505
  88   1.0000      -0.192188        -5.2297
  89   1.0000      -0.184687        -5.0256
  90   1.0000      -0.180241        -4.9046
  91   1.0000      -0.163488        -4.4487
  92   1.0000      -0.151911        -4.1337
  93   1.0000      -0.150082        -4.0839
  94   1.0000      -0.145579        -3.9614
  95   1.0000      -0.143150        -3.8953
  96   1.0000      -0.138889        -3.7794
  97   1.0000      -0.097091        -2.6420
  98   1.0000      -0.096424        -2.6238
  99   1.0000      -0.090788        -2.4705
 100   1.0000      -0.084735        -2.3058
 101   1.0000      -0.083121        -2.2618
 102   1.0000      -0.081719        -2.2237
 103   1.0000      -0.072159        -1.9635
 104   1.0000      -0.047066        -1.2807
 105   1.0000      -0.039495        -1.0747
 106   1.0000      -0.038399        -1.0449
 107   1.0000      -0.035797        -0.9741
 108   1.0000      -0.033089        -0.9004
 109   1.0000      -0.013332        -0.3628
 110   1.0000      -0.006802        -0.1851
 111   1.0000      -0.003478        -0.0947
 112   1.0000       0.005945         0.1618
 113   1.0000       0.010414         0.2834
 114   1.0000       0.032640         0.8882
 115   1.0000       0.057780         1.5723
 116   0.0000       0.173456         4.7200
 117   0.0000       0.184332         5.0159
 118   0.0000       0.190694         5.1891
 119   0.0000       0.196204         5.3390
 120   0.0000       0.197671         5.3789

MULLIKEN ATOMIC CHARGES AND SPIN POPULATIONS
--------------------------------------------
   0 V :    0.447242    1.199216
   1 S :   -0.250674   -0.024033
   2 S :   -0.254272   -0.024247
   3 S :   -0.250795   -0.023914
   4 S :   -0.253297   -0.024170
   5 O :   -0.505818   -0.138845
   6 C :   -0.117567    0.008886
   7 C :   -0.114628    0.008880
   8 C :   -0.106307    0.008938
   9 C :   -0.129144    0.008827
  10 S :   -0.042444   -0.000159
  11 S :   -0.046401   -0.000207
  12 S :   -0.016338   -0.000124
  13 S :   -0.064655   -0.000256
  14 C :   -0.342673    0.000290
  15 C :   -0.277969    0.000265
  16 C :   -0.332935    0.000265
  17 C :   -0.435440    0.000377
  18 C :   -0.084626    0.000137
  19 H :    0.144462   -0.000102
  20 H :    0.094346    0.000021
  21 H :    0.044798    0.000039
  22 H :    0.078716    0.000018
  23 H :    0.109408    0.000021
  24 H :    0.149266   -0.000103
  25 C :   -0.091098    0.000153
  26 H :    0.218128    0.000003
  27 H :    0.175095   -0.000115
  28 H :    0.081251    0.000010
  29 H :    0.048994    0.000032
  30 H :    0.118515   -0.000126
  31 H :    0.006859    0.000022
Sum of atomic charges         :   -2.0000000

LOEWDIN ATOMIC CHARGES AND SPIN POPULATIONS
-------------------------------------------
   0 V :   -0.242689    1.153203
   1 S :    0.090753   -0.016260
   2 S :    0.087857   -0.016416
   3 S :    0.089371   -0.016171
   4 S :    0.088487   -0.016397
   5 O :   -0.350421   -0.124291
   6 C :   -0.553614    0.009993
   7 C :   -0.552150    0.009962
   8 C :   -0.547370    0.010015
   9 C :   -0.555885    0.009945
  10 S :    0.337316   -0.001019
  11 S :    0.336673   -0.001050
  12 S :    0.347538   -0.000988
  13 S :    0.340169   -0.001074
  14 C :   -0.288247    0.000165
  15 C :   -0.318048    0.000161
  16 C :   -0.298526    0.000156
  17 C :   -0.180673    0.000176
  18 C :   -0.184816   -0.000036
  19 H :    0.067886   -0.000029
  20 H :    0.050538    0.000004
  21 H :    0.046910    0.000017
  22 H :    0.053462    0.000013
  23 H :    0.043602    0.000005
  24 H :    0.063963   -0.000025
  25 C :   -0.175860   -0.000037
  26 H :   -0.062279    0.000008
  27 H :    0.037942   -0.000008
  28 H :    0.055427    0.000011
  29 H :    0.049102    0.000017
  30 H :    0.083416   -0.000057
  31 H :    0.040165    0.000006

  Mayer bond orders larger than 0.100000
B(  0-V ,  1-S ) :   0.7855 B(  0-V ,  2-S ) :   0.7916 B(  0-V ,  3-S ) :   0.7900
B(  0-V ,  4-S ) :   0.7893 B(  0-V ,  5-O ) :   2.1087 B(  1-S ,  8-C ) :   1.1439
B(  2-S ,  6-C ) :   1.1355 B(  3-S ,  9-C ) :   1.1353 B(  4-S ,  7-C ) :   1.1384
B(  6-C ,  7-C ) :   1.5177 B(  6-C , 10-S ) :   0.9538 B(  7-C , 11-S ) :   0.9542
B(  8-C ,  9-C ) :   1.5103 B(  8-C , 13-S ) :   0.9552 B(  9-C , 12-S ) :   0.9541
B( 10-S , 16-C ) :   1.0063 B( 11-S , 14-C ) :   1.0032 B( 12-S , 15-C ) :   1.0110
B( 13-S , 17-C ) :   0.9644 B( 14-C , 18-C ) :   0.8763 B( 14-C , 23-H ) :   0.9713
B( 14-C , 24-H ) :   0.9768 B( 15-C , 25-C ) :   0.9030 B( 15-C , 30-H ) :   0.9513
B( 15-C , 31-H ) :   0.9335 B( 16-C , 18-C ) :   0.8800 B( 16-C , 19-H ) :   0.9736
B( 16-C , 20-H ) :   0.9687 B( 17-C , 25-C ) :   0.8405 B( 17-C , 26-H ) :   0.9663
B( 17-C , 27-H ) :   0.9923 B( 18-C , 21-H ) :   0.9526 B( 18-C , 22-H ) :   0.9738
B( 25-C , 28-H ) :   0.9723 B( 25-C , 29-H ) :   0.9529

FINAL SINGLE POINT ENERGY     -4592.495852372999

DIPOLE MOMENT
-------------
                                X             Y             Z
Electronic contribution:      5.28824      13.16112      22.73220
Nuclear contribution   :     -5.55021     -14.78787     -25.21537
                        -----------------------------------------
Total Dipole Moment    :     -0.26196      -1.62675      -2.48317
                        -----------------------------------------
Magnitude (a.u.)       :      2.98011
Magnitude (Debye)      :      7.57484

Rotational constants in cm-1:     0.012770     0.002548     0.002431
Rotational constants in MHz :   382.836509    76.397874    72.881778

                             ****ORCA TERMINATED NORMALLY****
TOTAL RUN TIME: 0 days 0 hours 27 minutes 29 seconds 83 msec
