                         Program Version 5.0.4 -  RELEASE  -
|  1> ! nofrozencore ReducedPop printbasis
|  2> ! B3LYP TZVP
|  3>
|  4> %basis
|  5> newgto V "CP(PPP)" end
|  6> end
|  7>
|  8> %pal
|  9> nprocs 4
| 10> end
| 11>
| 12> % sym SymThresh 1e-2 end
| 13> * xyz -2 2
| 14> V -0.13774302803903654 -1.0698181287180426 -0.30444545593400363
| 15> S 1.9675626468439074 -0.5831184648407787 -0.988686299194203
| 16> S 0.8607841407425912 -1.2035436646069757 1.72050150285039
| 17> S -0.8346674872049376 0.5860344311927962 -2.234507431308639
| 18> S -2.1948948538468285 -0.21245412228309374 1.1019922512629703
| 19> O -0.6026457361720867 -2.5087197771327814 -0.8357662677312675
| 20> C -0.5154166707681523 -1.019585187354993 2.9661933551470576
| 21> C -1.8007758877577433 -0.6822755519115531 2.656491556234105
| 22> C 1.7568339568389524 0.2565728340368082 -2.6416698473183415
| 23> C 0.5596726548791888 0.6566760457915238 -3.162638322468772
| 24> S -0.31278666163985863 -1.4149308984163498 4.654019988055799
| 25> S -3.333159792811461 -0.46679971667475334 3.710660175689419
| 26> S 0.11185160543480367 1.5137210524671625 -4.7679577202584715
| 27> S 3.096080972022438 0.5205506043452163 -3.7369696749610406
| 28> C -2.6545037123727213 0.8792250853338763 4.788743857399775
| 29> C 1.1293962504712043 3.0417630831762303 -4.502344116790477
| 30> C -0.30771378426278795 0.17130569931418227 5.610886610598556
| 31> C 3.498921896568906 2.3302255818400655 -3.7445607224226958
| 32> C -1.7310964657242192 0.5641117907254456 5.975378371734349
| 33> H 0.21696886203124807 0.949154084725396 5.045225654100712
| 34> H 0.26968600317778246 -0.04813270646114836 6.521632692801146
| 35> H -1.7092235364065336 1.4705462538071665 6.605772792269475
| 36> H -2.172388694120451 -0.23555331597945348 6.5805562495295735
| 37> H -3.5420645231353203 1.4080071021131693 5.172020467726131
| 38> H -2.143424401539125 1.559906199364194 4.095986304005153
| 39> C 2.6430893986496873 3.0630473222563253 -4.766342195314348
| 40> H 4.559591823427185 2.376674112996276 -4.037552775130416
| 41> H 3.400051351597122 2.7419860358024435 -2.733226800250756
| 42> H 2.8487476839618804 2.649042022323367 -5.7597107828788365
| 43> H 2.9404240339710674 4.126166263147567 -4.792870916911611
| 44> H 0.9340749314754618 3.32952395432454 -3.4624909364213776
| 45> H 0.6576122920807526 3.8008540783592806 -5.144540248667992
| 46> *
| 47>
| 48> % eprnmr
| 49> gtensor true
| 50> Nuclei = all H {aiso,adip,aorb,fgrad,rho}
| 51> Nuclei = all V {aiso,adip,aorb,fgrad,rho}
| 52> end
| 53>
| 54>                          ****END OF INPUT****

CARTESIAN COORDINATES (ANGSTROEM)
---------------------------------
  V     -0.138023   -1.070936   -0.304730
  S      1.967283   -0.584236   -0.988971
  S      0.860505   -1.204662    1.720217
  S     -0.834947    0.584916   -2.234792
  S     -2.195174   -0.213572    1.101708
  O     -0.602925   -2.509838   -0.836051
  C     -0.515696   -1.020703    2.965909
  C     -1.801055   -0.683394    2.656207
  C      1.756554    0.255455   -2.641954
  C      0.559393    0.655558   -3.162923
  S     -0.313066   -1.416049    4.653736
  S     -3.333439   -0.467918    3.710376
  S      0.111572    1.512603   -4.768242
  S      3.095801    0.519433   -3.737254
  C     -2.654783    0.878107    4.788460
  C      1.129117    3.040645   -4.502628
  C     -0.307993    0.170188    5.610602
  C      3.498642    2.329108   -3.744845
  C     -1.731376    0.562994    5.975094
  H      0.216689    0.948036    5.044941
  H      0.269407   -0.049251    6.521348
  H     -1.709503    1.469428    6.605489
  H     -2.172668   -0.236671    6.580272
  H     -3.542344    1.406889    5.171736
  H     -2.143704    1.558788    4.095702
  C      2.642810    3.061929   -4.766626
  H      4.559312    2.375556   -4.037837
  H      3.399772    2.740868   -2.733511
  H      2.848468    2.647924   -5.759995
  H      2.940145    4.125048   -4.793155
  H      0.933795    3.328406   -3.462775
  H      0.657333    3.799736   -5.144825

 Total Charge           Charge          ....   -2
 Multiplicity           Mult            ....    2
 Number of Electrons    NEL             ....  233
 Basis Dimension        Dim             ....  517

ORBITAL ENERGIES
----------------
                 SPIN UP ORBITALS
  NO   OCC          E(Eh)            E(eV)
   0   1.0000    -196.637941     -5350.7904
   1   1.0000     -88.685629     -2413.2586
   2   1.0000     -88.685421     -2413.2530
   3   1.0000     -88.666902     -2412.7491
   4   1.0000     -88.666538     -2412.7391
   5   1.0000     -88.619414     -2411.4569
   6   1.0000     -88.619404     -2411.4566
   7   1.0000     -88.606298     -2411.0999
   8   1.0000     -88.606060     -2411.0935
   9   1.0000     -22.013830      -599.0268
  10   1.0000     -18.854571      -513.0590
  11   1.0000     -18.520422      -503.9663
  12   1.0000     -18.515002      -503.8188
  13   1.0000     -18.514929      -503.8168
  14   1.0000     -10.017736      -272.5965
  15   1.0000     -10.017696      -272.5954
  16   1.0000     -10.012604      -272.4568
  17   1.0000     -10.011980      -272.4398
  18   1.0000     -10.004549      -272.2376
  19   1.0000     -10.004084      -272.2250
  20   1.0000      -9.997455      -272.0446
  21   1.0000      -9.996999      -272.0322
  22   1.0000      -9.987336      -271.7692
  23   1.0000      -9.986409      -271.7440
  24   1.0000      -7.738103      -210.5645
  25   1.0000      -7.737836      -210.5572
  26   1.0000      -7.721522      -210.1133
  27   1.0000      -7.721310      -210.1075
  28   1.0000      -7.673420      -208.8044
  29   1.0000      -7.673362      -208.8028
  30   1.0000      -7.662800      -208.5154
  31   1.0000      -7.662756      -208.5142
  32   1.0000      -5.703284      -155.1943
  33   1.0000      -5.703046      -155.1878
  34   1.0000      -5.699906      -155.1023
  35   1.0000      -5.699616      -155.0944
  36   1.0000      -5.692638      -154.9046
  37   1.0000      -5.692376      -154.8974
  38   1.0000      -5.686753      -154.7444
  39   1.0000      -5.686514      -154.7379
  40   1.0000      -5.682583      -154.6309
  41   1.0000      -5.682380      -154.6254
  42   1.0000      -5.676400      -154.4627
  43   1.0000      -5.676186      -154.4569
  44   1.0000      -5.638955      -153.4438
  45   1.0000      -5.638920      -153.4428
  46   1.0000      -5.631619      -153.2441
  47   1.0000      -5.631581      -153.2431
  48   1.0000      -5.630914      -153.2250
  49   1.0000      -5.630844      -153.2231
  50   1.0000      -5.626827      -153.1137
  51   1.0000      -5.626746      -153.1116
  52   1.0000      -5.621413      -152.9664
  53   1.0000      -5.621359      -152.9650
  54   1.0000      -5.621007      -152.9554
  55   1.0000      -5.620976      -152.9545
  56   1.0000      -2.408780       -65.5462
  57   1.0000      -1.449306       -39.4376
  58   1.0000      -1.439720       -39.1768
  59   1.0000      -1.438259       -39.1370
  60   1.0000      -0.643973       -17.5234
  61   1.0000      -0.643039       -17.4980
  62   1.0000      -0.616015       -16.7626
  63   1.0000      -0.597091       -16.2477
  64   1.0000      -0.596296       -16.2260
  65   1.0000      -0.574471       -15.6322
  66   1.0000      -0.573836       -15.6149
  67   1.0000      -0.497761       -13.5448
  68   1.0000      -0.496738       -13.5169
  69   1.0000      -0.483650       -13.1608
  70   1.0000      -0.480593       -13.0776
  71   1.0000      -0.432347       -11.7648
  72   1.0000      -0.422327       -11.4921
  73   1.0000      -0.404959       -11.0195
  74   1.0000      -0.402618       -10.9558
  75   1.0000      -0.373868       -10.1735
  76   1.0000      -0.370588       -10.0842
  77   1.0000      -0.290807        -7.9133
  78   1.0000      -0.290226        -7.8974
  79   1.0000      -0.280154        -7.6234
  80   1.0000      -0.279255        -7.5989
  81   1.0000      -0.255620        -6.9558
  82   1.0000      -0.250957        -6.8289
  83   1.0000      -0.239651        -6.5212
  84   1.0000      -0.236363        -6.4318
  85   1.0000      -0.198408        -5.3990
  86   1.0000      -0.196047        -5.3347
  87   1.0000      -0.187559        -5.1037
  88   1.0000      -0.186825        -5.0838
  89   1.0000      -0.185394        -5.0448
  90   1.0000      -0.182363        -4.9623
  91   1.0000      -0.182302        -4.9607
  92   1.0000      -0.153868        -4.1870
  93   1.0000      -0.147434        -4.0119
  94   1.0000      -0.142973        -3.8905
  95   1.0000      -0.142693        -3.8829
  96   1.0000      -0.140564        -3.8249
  97   1.0000      -0.106190        -2.8896
  98   1.0000      -0.094661        -2.5758
  99   1.0000      -0.093079        -2.5328
 100   1.0000      -0.080479        -2.1899
 101   1.0000      -0.080022        -2.1775
 102   1.0000      -0.077690        -2.1140
 103   1.0000      -0.068013        -1.8507
 104   1.0000      -0.051372        -1.3979
 105   1.0000      -0.044936        -1.2228
 106   1.0000      -0.042521        -1.1571
 107   1.0000      -0.033785        -0.9193
 108   1.0000      -0.024795        -0.6747
 109   1.0000      -0.013628        -0.3708
 110   1.0000      -0.010287        -0.2799
 111   1.0000      -0.002195        -0.0597
 112   1.0000       0.011819         0.3216
 113   1.0000       0.012789         0.3480
 114   1.0000       0.018203         0.4953
 115   1.0000       0.033868         0.9216
 116   1.0000       0.059400         1.6163
 117   0.0000       0.187556         5.1037
 118   0.0000       0.189673         5.1613
 119   0.0000       0.195237         5.3127
 120   0.0000       0.197923         5.3858
 121   0.0000       0.205585         5.5942

                 SPIN DOWN ORBITALS
  NO   OCC          E(Eh)            E(eV)
   0   1.0000    -196.638080     -5350.7942
   1   1.0000     -88.685649     -2413.2592
   2   1.0000     -88.685442     -2413.2536
   3   1.0000     -88.666893     -2412.7488
   4   1.0000     -88.666528     -2412.7389
   5   1.0000     -88.619590     -2411.4617
   6   1.0000     -88.619581     -2411.4614
   7   1.0000     -88.606453     -2411.1042
   8   1.0000     -88.606214     -2411.0977
   9   1.0000     -21.999529      -598.6376
  10   1.0000     -18.858008      -513.1525
  11   1.0000     -18.515407      -503.8298
  12   1.0000     -18.499853      -503.4066
  13   1.0000     -18.499264      -503.3906
  14   1.0000     -10.017735      -272.5964
  15   1.0000     -10.017694      -272.5953
  16   1.0000     -10.012595      -272.4566
  17   1.0000     -10.011973      -272.4396
  18   1.0000     -10.004547      -272.2376
  19   1.0000     -10.004082      -272.2249
  20   1.0000      -9.997366      -272.0422
  21   1.0000      -9.996913      -272.0298
  22   1.0000      -9.986720      -271.7525
  23   1.0000      -9.985785      -271.7270
  24   1.0000      -7.738123      -210.5650
  25   1.0000      -7.737857      -210.5578
  26   1.0000      -7.721513      -210.1131
  27   1.0000      -7.721301      -210.1073
  28   1.0000      -7.673578      -208.8087
  29   1.0000      -7.673519      -208.8071
  30   1.0000      -7.662946      -208.5194
  31   1.0000      -7.662901      -208.5181
  32   1.0000      -5.703309      -155.1949
  33   1.0000      -5.703071      -155.1885
  34   1.0000      -5.699925      -155.1028
  35   1.0000      -5.699636      -155.0950
  36   1.0000      -5.692675      -154.9056
  37   1.0000      -5.692413      -154.8984
  38   1.0000      -5.686750      -154.7443
  39   1.0000      -5.686510      -154.7378
  40   1.0000      -5.682576      -154.6307
  41   1.0000      -5.682373      -154.6252
  42   1.0000      -5.676370      -154.4619
  43   1.0000      -5.676154      -154.4560
  44   1.0000      -5.639220      -153.4510
  45   1.0000      -5.639182      -153.4500
  46   1.0000      -5.631982      -153.2540
  47   1.0000      -5.631949      -153.2531
  48   1.0000      -5.631068      -153.2291
  49   1.0000      -5.630993      -153.2271
  50   1.0000      -5.626972      -153.1177
  51   1.0000      -5.626892      -153.1155
  52   1.0000      -5.621694      -152.9741
  53   1.0000      -5.621613      -152.9719
  54   1.0000      -5.621257      -152.9622
  55   1.0000      -5.621247      -152.9619
  56   1.0000      -2.365572       -64.3705
  57   1.0000      -1.430938       -38.9378
  58   1.0000      -1.379266       -37.5317
  59   1.0000      -1.379062       -37.5262
  60   1.0000      -0.643882       -17.5209
  61   1.0000      -0.642951       -17.4956
  62   1.0000      -0.623398       -16.9635
  63   1.0000      -0.596915       -16.2429
  64   1.0000      -0.596099       -16.2207
  65   1.0000      -0.574407       -15.6304
  66   1.0000      -0.573773       -15.6131
  67   1.0000      -0.497891       -13.5483
  68   1.0000      -0.496875       -13.5207
  69   1.0000      -0.483420       -13.1545
  70   1.0000      -0.480383       -13.0719
  71   1.0000      -0.432339       -11.7646
  72   1.0000      -0.422472       -11.4960
  73   1.0000      -0.405032       -11.0215
  74   1.0000      -0.402708       -10.9582
  75   1.0000      -0.373760       -10.1705
  76   1.0000      -0.370555       -10.0833
  77   1.0000      -0.290757        -7.9119
  78   1.0000      -0.290204        -7.8969
  79   1.0000      -0.280043        -7.6204
  80   1.0000      -0.279184        -7.5970
  81   1.0000      -0.255341        -6.9482
  82   1.0000      -0.250918        -6.8278
  83   1.0000      -0.239474        -6.5164
  84   1.0000      -0.236246        -6.4286
  85   1.0000      -0.197895        -5.3850
  86   1.0000      -0.195946        -5.3320
  87   1.0000      -0.186776        -5.0824
  88   1.0000      -0.185388        -5.0447
  89   1.0000      -0.185291        -5.0420
  90   1.0000      -0.182270        -4.9598
  91   1.0000      -0.181886        -4.9494
  92   1.0000      -0.152752        -4.1566
  93   1.0000      -0.147291        -4.0080
  94   1.0000      -0.142845        -3.8870
  95   1.0000      -0.142303        -3.8722
  96   1.0000      -0.140346        -3.8190
  97   1.0000      -0.105089        -2.8596
  98   1.0000      -0.093069        -2.5325
  99   1.0000      -0.092541        -2.5182
 100   1.0000      -0.081056        -2.2056
 101   1.0000      -0.079850        -2.1728
 102   1.0000      -0.078542        -2.1372
 103   1.0000      -0.068712        -1.8698
 104   1.0000      -0.047795        -1.3006
 105   1.0000      -0.044704        -1.2165
 106   1.0000      -0.041396        -1.1265
 107   1.0000      -0.032515        -0.8848
 108   1.0000      -0.023232        -0.6322
 109   1.0000      -0.012843        -0.3495
 110   1.0000      -0.011433        -0.3111
 111   1.0000      -0.002081        -0.0566
 112   1.0000       0.012750         0.3470
 113   1.0000       0.013944         0.3794
 114   1.0000       0.034181         0.9301
 115   1.0000       0.058645         1.5958
 116   0.0000       0.176043         4.7904
 117   0.0000       0.188486         5.1290
 118   0.0000       0.191820         5.2197
 119   0.0000       0.195949         5.3320
 120   0.0000       0.198175         5.3926

MULLIKEN ATOMIC CHARGES AND SPIN POPULATIONS
--------------------------------------------
   0 V :    0.457606    1.178277
   1 S :   -0.230212   -0.028162
   2 S :   -0.229898   -0.027817
   3 S :   -0.269631   -0.023155
   4 S :   -0.266418   -0.022602
   5 O :   -0.514929   -0.134072
   6 C :   -0.090895    0.025110
   7 C :   -0.141660    0.000797
   8 C :   -0.092890    0.024931
   9 C :   -0.137613    0.001066
  10 S :   -0.061395    0.003825
  11 S :   -0.029693   -0.001680
  12 S :   -0.030539   -0.001688
  13 S :   -0.063746    0.003626
  14 C :   -0.375437   -0.000088
  15 C :   -0.371517   -0.000065
  16 C :   -0.301940    0.000398
  17 C :   -0.299836    0.000494
  18 C :   -0.081887    0.000410
  19 H :    0.135866    0.000053
  20 H :    0.094994    0.000001
  21 H :    0.043560    0.000124
  22 H :    0.080203    0.000001
  23 H :    0.098897   -0.000034
  24 H :    0.155927   -0.000155
  25 C :   -0.082041    0.000423
  26 H :    0.094625    0.000022
  27 H :    0.135188    0.000038
  28 H :    0.079161   -0.000010
  29 H :    0.044208    0.000115
  30 H :    0.153781   -0.000159
  31 H :    0.098161   -0.000023
Sum of atomic charges         :   -2.0000000

LOEWDIN ATOMIC CHARGES AND SPIN POPULATIONS
-------------------------------------------
   0 V :   -0.261210    1.130520
   1 S :    0.123976   -0.015384
   2 S :    0.126114   -0.015143
   3 S :    0.077501   -0.018147
   4 S :    0.081967   -0.017849
   5 O :   -0.360737   -0.120018
   6 C :   -0.573974    0.023971
   7 C :   -0.537953    0.003234
   8 C :   -0.570573    0.023624
   9 C :   -0.535749    0.003385
  10 S :    0.355211    0.002425
  11 S :    0.314988   -0.002026
  12 S :    0.313935   -0.002057
  13 S :    0.352485    0.002305
  14 C :   -0.295928    0.000046
  15 C :   -0.295806    0.000054
  16 C :   -0.295945    0.000395
  17 C :   -0.296289    0.000461
  18 C :   -0.187032    0.000056
  19 H :    0.063477    0.000086
  20 H :    0.047028   -0.000010
  21 H :    0.045621    0.000070
  22 H :    0.053857    0.000023
  23 H :    0.046751   -0.000033
  24 H :    0.068777   -0.000095
  25 C :   -0.186126    0.000047
  26 H :    0.047544    0.000005
  27 H :    0.063337    0.000083
  28 H :    0.053784    0.000019
  29 H :    0.046216    0.000073
  30 H :    0.067985   -0.000095
  31 H :    0.046770   -0.000026

  Mayer bond orders larger than 0.100000
B(  0-V ,  1-S ) :   0.9184 B(  0-V ,  2-S ) :   0.9233 B(  0-V ,  3-S ) :   0.6572
B(  0-V ,  4-S ) :   0.6566 B(  0-V ,  5-O ) :   2.0859 B(  1-S ,  8-C ) :   1.0026
B(  2-S ,  6-C ) :   1.0024 B(  3-S ,  9-C ) :   1.2484 B(  4-S ,  7-C ) :   1.2551
B(  6-C ,  7-C ) :   1.4913 B(  6-C , 10-S ) :   0.9746 B(  7-C , 11-S ) :   0.9428
B(  8-C ,  9-C ) :   1.5003 B(  8-C , 13-S ) :   0.9779 B(  9-C , 12-S ) :   0.9439
B( 10-S , 16-C ) :   0.9494 B( 11-S , 14-C ) :   1.0349 B( 12-S , 15-C ) :   1.0370
B( 13-S , 17-C ) :   0.9505 B( 14-C , 18-C ) :   0.8579 B( 14-C , 23-H ) :   0.9696
B( 14-C , 24-H ) :   0.9772 B( 15-C , 25-C ) :   0.8608 B( 15-C , 30-H ) :   0.9762
B( 15-C , 31-H ) :   0.9699 B( 16-C , 18-C ) :   0.8969 B( 16-C , 19-H ) :   0.9708
B( 16-C , 20-H ) :   0.9712 B( 17-C , 25-C ) :   0.8970 B( 17-C , 26-H ) :   0.9720
B( 17-C , 27-H ) :   0.9699 B( 18-C , 21-H ) :   0.9520 B( 18-C , 22-H ) :   0.9741
B( 25-C , 28-H ) :   0.9740 B( 25-C , 29-H ) :   0.9529

FINAL SINGLE POINT ENERGY     -4592.658568829876

DIPOLE MOMENT
-------------
                                X             Y             Z
Electronic contribution:     -5.99631     -24.71785      -8.11084
Nuclear contribution   :      6.51770      27.57505       8.99969
                        -----------------------------------------
Total Dipole Moment    :      0.52138       2.85720       0.88885
                        -----------------------------------------
Magnitude (a.u.)       :      3.03735
Magnitude (Debye)      :      7.72032

Rotational constants in cm-1:     0.012755     0.002547     0.002429
Rotational constants in MHz :   382.388654    76.363387    72.831323

                             ****ORCA TERMINATED NORMALLY****
TOTAL RUN TIME: 0 days 0 hours 43 minutes 7 seconds 216 msec
