                         Program Version 5.0.4 -  RELEASE  -
|  1> ! nofrozencore ReducedPop printbasis
|  2> ! B3LYP TZVP
|  3>
|  4> %basis
|  5> newgto V "CP(PPP)" end
|  6> end
|  7>
|  8> %pal
|  9> nprocs 8
| 10> end
| 11>
| 12> % sym SymThresh 1e-2 end
| 13> * xyz -2 2
| 14> V 0.9463194226193725 -0.41522633435422357 -0.4197592864322263
| 15> S -0.04490752508880896 1.0431742429520672 -2.121617290158095
| 16> S 1.4938836615622548 1.6495573406129649 0.7778560192402143
| 17> S -0.8817360393370017 -1.9194146813739528 -1.048238736020294
| 18> S 0.684408567273668 -1.324242858328102 1.8413031556534687
| 19> O 2.2994064224440582 -1.0075229916063568 -1.0260182773316433
| 20> C 1.8009282274254923 1.11658112635197 2.4356951771930824
| 21> C 1.462113410739344 -0.12261924615851337 2.879150158755823
| 22> C -1.1139288785640857 -0.03038497386850487 -3.0322131189644255
| 23> C -1.4630361335744964 -1.2660387963989312 -2.5848558638874106
| 24> S 2.5704509840473695 2.355233238980549 3.498032404746002
| 25> S 1.7409223066254154 -0.6582854372751525 4.579355723618607
| 26> S -2.583555127944574 -2.3501679179915054 -3.492684639137889
| 27> S -1.7338536882116489 0.655323261077134 -4.582004561267928
| 28> C 0.5876535185818498 0.4122717579395581 5.5378225183588
| 29> C -4.213014754883355 -1.470822620847724 -3.37821815359455
| 30> C 1.2320248132760798 2.7495226235104426 4.701064930975671
| 31> C -3.5390807346051254 0.9113121816286623 -4.242967049984369
| 32> C 1.0777167095436886 1.8083740986186712 5.884234672844756
| 33> H 0.2323789311059447 2.8357875100764374 4.0915981151899
| 34> H 1.5142955742683475 3.8990195174306392 5.116802919385037
| 35> H 0.3394106603917849 2.272716580980441 6.612402878051366
| 36> H 2.0618039377104553 1.7313960752554454 6.427042839180839
| 37> H 0.37210170381794927 -0.2294022500062006 6.597197807359263
| 38> H -0.42516928632620127 0.45107022640359906 4.942134730975985
| 39> C -4.422577335614058 -0.34309327037601905 -4.411764807337938
| 40> H -3.7751687630974713 1.4738024840412078 -4.765075022607312
| 41> H -3.610159413523429 1.2525586268411042 -3.3661382559275697
| 42> H -4.290891299409699 -0.7271963583847838 -5.367158029121469
| 43> H -5.410823143534888 -0.03543609726910946 -4.334247560658432
| 44> H -4.2832794345858325 -1.1351996579702448 -2.5048890140499855
| 45> H -4.762963848989377 -2.0320812253146467 -3.4879514848244404
| 46> *
| 47>
| 48> % eprnmr
| 49> gtensor true
| 50> Nuclei = all H {aiso,adip,aorb,fgrad,rho}
| 51> Nuclei = all V {aiso,adip,aorb,fgrad,rho}
| 52> end
| 53>
| 54>                          ****END OF INPUT****

CARTESIAN COORDINATES (ANGSTROEM)
---------------------------------
  V      0.947363   -0.415647   -0.420136
  S     -0.043864    1.042754   -2.121994
  S      1.494928    1.649137    0.777479
  S     -0.880692   -1.919835   -1.048616
  S      0.685452   -1.324663    1.840926
  O      2.300450   -1.007943   -1.026395
  C      1.801972    1.116161    2.435318
  C      1.463157   -0.123040    2.878773
  C     -1.112885   -0.030805   -3.032590
  C     -1.461992   -1.266459   -2.585233
  S      2.571495    2.354813    3.497655
  S      1.741966   -0.658706    4.578979
  S     -2.582511   -2.350588   -3.493062
  S     -1.732810    0.654903   -4.582382
  C      0.588697    0.411851    5.537445
  C     -4.211971   -1.471243   -3.378595
  C      1.233069    2.749102    4.700688
  C     -3.538037    0.910892   -4.243344
  C      1.078761    1.807954    5.883858
  H      0.233423    2.835367    4.091221
  H      1.515339    3.898599    5.116426
  H      0.340455    2.272296    6.612026
  H      2.062848    1.730976    6.426666
  H      0.373146   -0.229823    6.596821
  H     -0.424125    0.450650    4.941758
  C     -4.421533   -0.343514   -4.412142
  H     -3.774125    1.473382   -4.765452
  H     -3.609116    1.252138   -3.366515
  H     -4.289847   -0.727617   -5.367535
  H     -5.409779   -0.035856   -4.334625
  H     -4.282236   -1.135620   -2.505266
  H     -4.761920   -2.032502   -3.488329

 Total Charge           Charge          ....   -2
 Multiplicity           Mult            ....    2
 Number of Electrons    NEL             ....  233
 Basis Dimension        Dim             ....  517

ORBITAL ENERGIES
----------------
                 SPIN UP ORBITALS
  NO   OCC          E(Eh)            E(eV)
   0   1.0000    -196.639995     -5350.8463
   1   1.0000     -88.679036     -2413.0793
   2   1.0000     -88.678973     -2413.0775
   3   1.0000     -88.673799     -2412.9368
   4   1.0000     -88.673796     -2412.9367
   5   1.0000     -88.612880     -2411.2791
   6   1.0000     -88.612830     -2411.2777
   7   1.0000     -88.611046     -2411.2291
   8   1.0000     -88.611009     -2411.2281
   9   1.0000     -22.015817      -599.0808
  10   1.0000     -18.857109      -513.1280
  11   1.0000     -18.522649      -504.0269
  12   1.0000     -18.516862      -503.8694
  13   1.0000     -18.516825      -503.8684
  14   1.0000     -10.039197      -273.1805
  15   1.0000     -10.038829      -273.1704
  16   1.0000     -10.014099      -272.4975
  17   1.0000      -9.993229      -271.9296
  18   1.0000      -9.992507      -271.9099
  19   1.0000      -9.990864      -271.8652
  20   1.0000      -9.990154      -271.8459
  21   1.0000      -9.988722      -271.8069
  22   1.0000      -9.968694      -271.2620
  23   1.0000      -9.967393      -271.2265
  24   1.0000      -7.732565      -210.4138
  25   1.0000      -7.732499      -210.4120
  26   1.0000      -7.727508      -210.2762
  27   1.0000      -7.727499      -210.2759
  28   1.0000      -7.667278      -208.6372
  29   1.0000      -7.667246      -208.6364
  30   1.0000      -7.665508      -208.5891
  31   1.0000      -7.665446      -208.5874
  32   1.0000      -5.697863      -155.0467
  33   1.0000      -5.697794      -155.0449
  34   1.0000      -5.693907      -154.9391
  35   1.0000      -5.693848      -154.9375
  36   1.0000      -5.692686      -154.9059
  37   1.0000      -5.692676      -154.9056
  38   1.0000      -5.688869      -154.8020
  39   1.0000      -5.688868      -154.8020
  40   1.0000      -5.687273      -154.7586
  41   1.0000      -5.687208      -154.7568
  42   1.0000      -5.682333      -154.6241
  43   1.0000      -5.682330      -154.6241
  44   1.0000      -5.632142      -153.2584
  45   1.0000      -5.632113      -153.2576
  46   1.0000      -5.630332      -153.2091
  47   1.0000      -5.630294      -153.2081
  48   1.0000      -5.625700      -153.0831
  49   1.0000      -5.625659      -153.0820
  50   1.0000      -5.625276      -153.0715
  51   1.0000      -5.625239      -153.0705
  52   1.0000      -5.623969      -153.0360
  53   1.0000      -5.623917      -153.0346
  54   1.0000      -5.623469      -153.0224
  55   1.0000      -5.623412      -153.0208
  56   1.0000      -2.409507       -65.5660
  57   1.0000      -1.450880       -39.4804
  58   1.0000      -1.439288       -39.1650
  59   1.0000      -1.438205       -39.1355
  60   1.0000      -0.658719       -17.9247
  61   1.0000      -0.641939       -17.4681
  62   1.0000      -0.618147       -16.8206
  63   1.0000      -0.603415       -16.4198
  64   1.0000      -0.597388       -16.2558
  65   1.0000      -0.593107       -16.1393
  66   1.0000      -0.570847       -15.5335
  67   1.0000      -0.505584       -13.7576
  68   1.0000      -0.493586       -13.4312
  69   1.0000      -0.490790       -13.3551
  70   1.0000      -0.479982       -13.0610
  71   1.0000      -0.440742       -11.9932
  72   1.0000      -0.430976       -11.7275
  73   1.0000      -0.415421       -11.3042
  74   1.0000      -0.403700       -10.9852
  75   1.0000      -0.383307       -10.4303
  76   1.0000      -0.365074        -9.9342
  77   1.0000      -0.330624        -8.9967
  78   1.0000      -0.286591        -7.7985
  79   1.0000      -0.282368        -7.6836
  80   1.0000      -0.281902        -7.6709
  81   1.0000      -0.270250        -7.3539
  82   1.0000      -0.256504        -6.9798
  83   1.0000      -0.246753        -6.7145
  84   1.0000      -0.234075        -6.3695
  85   1.0000      -0.206354        -5.6152
  86   1.0000      -0.200529        -5.4567
  87   1.0000      -0.193045        -5.2530
  88   1.0000      -0.191135        -5.2010
  89   1.0000      -0.181959        -4.9514
  90   1.0000      -0.178997        -4.8708
  91   1.0000      -0.177677        -4.8348
  92   1.0000      -0.150525        -4.0960
  93   1.0000      -0.150054        -4.0832
  94   1.0000      -0.147085        -4.0024
  95   1.0000      -0.143357        -3.9009
  96   1.0000      -0.139483        -3.7955
  97   1.0000      -0.097356        -2.6492
  98   1.0000      -0.096696        -2.6312
  99   1.0000      -0.089698        -2.4408
 100   1.0000      -0.082964        -2.2576
 101   1.0000      -0.081777        -2.2253
 102   1.0000      -0.080137        -2.1806
 103   1.0000      -0.069402        -1.8885
 104   1.0000      -0.050127        -1.3640
 105   1.0000      -0.038441        -1.0460
 106   1.0000      -0.038230        -1.0403
 107   1.0000      -0.035105        -0.9553
 108   1.0000      -0.031942        -0.8692
 109   1.0000      -0.012907        -0.3512
 110   1.0000      -0.004532        -0.1233
 111   1.0000      -0.003106        -0.0845
 112   1.0000       0.006321         0.1720
 113   1.0000       0.010824         0.2945
 114   1.0000       0.016370         0.4455
 115   1.0000       0.033582         0.9138
 116   1.0000       0.059832         1.6281
 117   0.0000       0.184427         5.0185
 118   0.0000       0.186864         5.0848
 119   0.0000       0.196362         5.3433
 120   0.0000       0.205095         5.5809
 121   0.0000       0.211675         5.7600

                 SPIN DOWN ORBITALS
  NO   OCC          E(Eh)            E(eV)
   0   1.0000    -196.640137     -5350.8501
   1   1.0000     -88.679050     -2413.0796
   2   1.0000     -88.678986     -2413.0779
   3   1.0000     -88.673813     -2412.9371
   4   1.0000     -88.673810     -2412.9370
   5   1.0000     -88.613038     -2411.2833
   6   1.0000     -88.612988     -2411.2820
   7   1.0000     -88.611207     -2411.2335
   8   1.0000     -88.611171     -2411.2325
   9   1.0000     -22.001148      -598.6817
  10   1.0000     -18.860692      -513.2255
  11   1.0000     -18.517518      -503.8873
  12   1.0000     -18.501371      -503.4479
  13   1.0000     -18.500691      -503.4294
  14   1.0000     -10.039194      -273.1803
  15   1.0000     -10.038825      -273.1703
  16   1.0000     -10.014099      -272.4975
  17   1.0000      -9.992974      -271.9226
  18   1.0000      -9.992254      -271.9031
  19   1.0000      -9.990609      -271.8583
  20   1.0000      -9.989900      -271.8390
  21   1.0000      -9.988722      -271.8069
  22   1.0000      -9.968690      -271.2619
  23   1.0000      -9.967389      -271.2264
  24   1.0000      -7.732579      -210.4142
  25   1.0000      -7.732513      -210.4124
  26   1.0000      -7.727522      -210.2766
  27   1.0000      -7.727513      -210.2763
  28   1.0000      -7.667424      -208.6412
  29   1.0000      -7.667392      -208.6403
  30   1.0000      -7.665659      -208.5932
  31   1.0000      -7.665597      -208.5915
  32   1.0000      -5.697880      -155.0472
  33   1.0000      -5.697811      -155.0453
  34   1.0000      -5.693928      -154.9396
  35   1.0000      -5.693868      -154.9380
  36   1.0000      -5.692703      -154.9063
  37   1.0000      -5.692693      -154.9061
  38   1.0000      -5.688889      -154.8026
  39   1.0000      -5.688888      -154.8025
  40   1.0000      -5.687290      -154.7590
  41   1.0000      -5.687224      -154.7572
  42   1.0000      -5.682351      -154.6246
  43   1.0000      -5.682348      -154.6245
  44   1.0000      -5.632312      -153.2630
  45   1.0000      -5.632283      -153.2622
  46   1.0000      -5.630504      -153.2138
  47   1.0000      -5.630468      -153.2128
  48   1.0000      -5.626083      -153.0935
  49   1.0000      -5.626043      -153.0924
  50   1.0000      -5.625411      -153.0752
  51   1.0000      -5.625373      -153.0742
  52   1.0000      -5.624366      -153.0468
  53   1.0000      -5.624315      -153.0454
  54   1.0000      -5.623604      -153.0260
  55   1.0000      -5.623547      -153.0245
  56   1.0000      -2.365322       -64.3637
  57   1.0000      -1.432049       -38.9680
  58   1.0000      -1.377875       -37.4939
  59   1.0000      -1.377227       -37.4763
  60   1.0000      -0.658697       -17.9241
  61   1.0000      -0.641879       -17.4664
  62   1.0000      -0.625817       -17.0294
  63   1.0000      -0.603415       -16.4198
  64   1.0000      -0.597168       -16.2498
  65   1.0000      -0.592918       -16.1341
  66   1.0000      -0.570838       -15.5333
  67   1.0000      -0.505549       -13.7567
  68   1.0000      -0.493604       -13.4317
  69   1.0000      -0.490822       -13.3559
  70   1.0000      -0.480026       -13.0622
  71   1.0000      -0.440794       -11.9946
  72   1.0000      -0.431296       -11.7362
  73   1.0000      -0.415665       -11.3108
  74   1.0000      -0.403734       -10.9862
  75   1.0000      -0.383334       -10.4311
  76   1.0000      -0.365059        -9.9338
  77   1.0000      -0.330619        -8.9966
  78   1.0000      -0.286590        -7.7985
  79   1.0000      -0.282343        -7.6829
  80   1.0000      -0.281870        -7.6701
  81   1.0000      -0.270237        -7.3535
  82   1.0000      -0.256243        -6.9727
  83   1.0000      -0.246606        -6.7105
  84   1.0000      -0.234060        -6.3691
  85   1.0000      -0.206351        -5.6151
  86   1.0000      -0.200349        -5.4518
  87   1.0000      -0.192975        -5.2511
  88   1.0000      -0.190772        -5.1912
  89   1.0000      -0.180616        -4.9148
  90   1.0000      -0.178939        -4.8692
  91   1.0000      -0.176912        -4.8140
  92   1.0000      -0.149852        -4.0777
  93   1.0000      -0.149745        -4.0748
  94   1.0000      -0.146856        -3.9962
  95   1.0000      -0.143154        -3.8954
  96   1.0000      -0.139318        -3.7910
  97   1.0000      -0.096211        -2.6180
  98   1.0000      -0.095822        -2.6074
  99   1.0000      -0.089798        -2.4435
 100   1.0000      -0.083025        -2.2592
 101   1.0000      -0.082024        -2.2320
 102   1.0000      -0.081322        -2.2129
 103   1.0000      -0.070682        -1.9234
 104   1.0000      -0.046003        -1.2518
 105   1.0000      -0.038505        -1.0478
 106   1.0000      -0.037410        -1.0180
 107   1.0000      -0.034226        -0.9313
 108   1.0000      -0.031892        -0.8678
 109   1.0000      -0.011999        -0.3265
 110   1.0000      -0.005749        -0.1564
 111   1.0000      -0.002197        -0.0598
 112   1.0000       0.007121         0.1938
 113   1.0000       0.011745         0.3196
 114   1.0000       0.033832         0.9206
 115   1.0000       0.059042         1.6066
 116   0.0000       0.183972         5.0061
 117   0.0000       0.185863         5.0576
 118   0.0000       0.187830         5.1111
 119   0.0000       0.197234         5.3670
 120   0.0000       0.205791         5.5999

MULLIKEN ATOMIC CHARGES AND SPIN POPULATIONS
--------------------------------------------
   0 V :    0.447429    1.199298
   1 S :   -0.255742   -0.024629
   2 S :   -0.251153   -0.023669
   3 S :   -0.255975   -0.024554
   4 S :   -0.251390   -0.023556
   5 O :   -0.506594   -0.138851
   6 C :   -0.119412    0.008836
   7 C :   -0.117794    0.008825
   8 C :   -0.114250    0.008949
   9 C :   -0.114092    0.008918
  10 S :   -0.030848   -0.000140
  11 S :   -0.030434   -0.000174
  12 S :   -0.066279   -0.000219
  13 S :   -0.065744   -0.000252
  14 C :   -0.314621    0.000275
  15 C :   -0.409879    0.000353
  16 C :   -0.314280    0.000260
  17 C :   -0.406274    0.000371
  18 C :   -0.062248    0.000159
  19 H :    0.135626   -0.000104
  20 H :    0.061141    0.000010
  21 H :    0.044775    0.000047
  22 H :    0.076376    0.000017
  23 H :    0.060481    0.000011
  24 H :    0.135597   -0.000107
  25 C :   -0.133915    0.000103
  26 H :    0.191189    0.000016
  27 H :    0.167630   -0.000119
  28 H :    0.086580    0.000010
  29 H :    0.050438    0.000019
  30 H :    0.168693   -0.000115
  31 H :    0.194968    0.000013
Sum of atomic charges         :   -2.0000000

LOEWDIN ATOMIC CHARGES AND SPIN POPULATIONS
-------------------------------------------
   0 V :   -0.243014    1.153275
   1 S :    0.086507   -0.016715
   2 S :    0.089779   -0.015985
   3 S :    0.086299   -0.016639
   4 S :    0.089565   -0.015935
   5 O :   -0.350965   -0.124297
   6 C :   -0.554017    0.010006
   7 C :   -0.553522    0.009957
   8 C :   -0.550226    0.009957
   9 C :   -0.550521    0.009986
  10 S :    0.340694   -0.000998
  11 S :    0.340644   -0.001019
  12 S :    0.337238   -0.001067
  13 S :    0.337027   -0.001084
  14 C :   -0.317838    0.000165
  15 C :   -0.197883    0.000166
  16 C :   -0.317681    0.000157
  17 C :   -0.202279    0.000176
  18 C :   -0.205864   -0.000032
  19 H :    0.076776   -0.000039
  20 H :    0.056909   -0.000002
  21 H :    0.052199    0.000020
  22 H :    0.058362    0.000013
  23 H :    0.056866   -0.000001
  24 H :    0.077097   -0.000040
  25 C :   -0.134810   -0.000043
  26 H :   -0.034752    0.000008
  27 H :    0.042213   -0.000010
  28 H :    0.045400    0.000010
  29 H :    0.037743    0.000012
  30 H :    0.041330   -0.000009
  31 H :   -0.039277    0.000007

  Mayer bond orders larger than 0.100000
B(  0-V ,  1-S ) :   0.7922 B(  0-V ,  2-S ) :   0.7865 B(  0-V ,  3-S ) :   0.7943
B(  0-V ,  4-S ) :   0.7840 B(  0-V ,  5-O ) :   2.1080 B(  1-S ,  8-C ) :   1.1363
B(  2-S ,  6-C ) :   1.1395 B(  3-S ,  9-C ) :   1.1352 B(  4-S ,  7-C ) :   1.1405
B(  6-C ,  7-C ) :   1.5028 B(  6-C , 10-S ) :   0.9523 B(  7-C , 11-S ) :   0.9522
B(  8-C ,  9-C ) :   1.5356 B(  8-C , 13-S ) :   0.9580 B(  9-C , 12-S ) :   0.9581
B( 10-S , 16-C ) :   1.0078 B( 11-S , 14-C ) :   1.0078 B( 12-S , 15-C ) :   0.9768
B( 13-S , 17-C ) :   0.9790 B( 14-C , 18-C ) :   0.8806 B( 14-C , 23-H ) :   0.9550
B( 14-C , 24-H ) :   0.9625 B( 15-C , 25-C ) :   0.8604 B( 15-C , 30-H ) :   0.9949
B( 15-C , 31-H ) :   0.9719 B( 16-C , 18-C ) :   0.8799 B( 16-C , 19-H ) :   0.9627
B( 16-C , 20-H ) :   0.9552 B( 17-C , 25-C ) :   0.8616 B( 17-C , 26-H ) :   0.9723
B( 17-C , 27-H ) :   0.9942 B( 18-C , 21-H ) :   0.9471 B( 18-C , 22-H ) :   0.9660
B( 25-C , 28-H ) :   0.9859 B( 25-C , 29-H ) :   0.9622

FINAL SINGLE POINT ENERGY     -4592.456318876731

DIPOLE MOMENT
-------------
                                X             Y             Z
Electronic contribution:     22.27980      -9.97907     -10.40152
Nuclear contribution   :    -25.04667      11.07193      11.28490
                        -----------------------------------------
Total Dipole Moment    :     -2.76687       1.09286       0.88337
                        -----------------------------------------
Magnitude (a.u.)       :      3.10326
Magnitude (Debye)      :      7.88786

Rotational constants in cm-1:     0.012775     0.002549     0.002431
Rotational constants in MHz :   382.987626    76.404970    72.889580

                             ****ORCA TERMINATED NORMALLY****
TOTAL RUN TIME: 0 days 0 hours 28 minutes 4 seconds 201 msec
