                         Program Version 5.0.4 -  RELEASE  -
|  1> ! nofrozencore ReducedPop printbasis
|  2> ! B3LYP TZVP
|  3>
|  4> %basis
|  5> newgto V "CP(PPP)" end
|  6> end
|  7>
|  8> %pal
|  9> nprocs 4
| 10> end
| 11>
| 12> % sym SymThresh 1e-2 end
| 13> * xyz -2 2
| 14> V 0.3981200234484221 -0.8355606496304715 -0.6237800474466402
| 15> S -1.8931857771560798 -0.3306516634865609 -1.3113810015786793
| 16> S 1.0130110825395315 1.2511433672241261 -1.7787487000734987
| 17> S -0.866632535643476 -1.7498618946387092 1.2512487740867464
| 18> S 2.156460814720646 -0.3326180621715095 1.022992473906644
| 19> O 1.0543695411593133 -1.9891145565328228 -1.5188045528650926
| 20> C 2.499604354972464 1.6635209467119116 -0.8985085089404536
| 21> C 2.952099856281181 1.0355215373457627 0.21761225958961025
| 22> C -2.9725507984384496 -1.4304875711231868 -0.4319645019408641
| 23> C -2.5229632622572264 -2.0505455449557934 0.6923945509666579
| 24> S 3.599382385297409 2.890618656105993 -1.6567577466620491
| 25> S 4.597172820162533 1.50355452134581 0.8201690162761792
| 26> S -3.480094117582879 -3.003069038802439 1.9096902888113136
| 27> S -4.673075326646201 -1.363907548017959 -1.0707813087737086
| 28> C 4.378583276710601 3.1872039947692334 1.5796271176804006
| 29> C -4.648163075301551 -1.6967403417185425 2.489359071914307
| 30> C 3.522032541301651 4.368920926704042 -0.5315468638762995
| 31> C -5.504899366764953 -0.5083952139913077 0.33695853534159886
| 32> C 4.520732760972377 4.374000848966389 0.6260133421728076
| 33> H 2.494993958607278 4.444376289111326 -0.16416503119792702
| 34> H 3.706220632003084 5.229098364636569 -1.1880872272909133
| 35> H 4.385623417532695 5.307193384722987 1.2036612070372683
| 36> H 5.543695430745921 4.394584803431862 0.2222265439062654
| 37> H 5.148997601721611 3.240865576994867 2.360435123602389
| 38> H 3.402596274414571 3.197256119912195 2.073652482448565
| 39> C -5.822966152403047 -1.3704452579076927 1.5623192253927403
| 40> H -6.441625291477091 -0.11982561443427102 -0.08638910567967097
| 41> H -4.882209189722915 0.348836120657253 0.6120224215589724
| 42> H -6.299149119443155 -2.305189410728794 1.2354797092863785
| 43> H -6.570325951533104 -0.8202411459325752 2.1642389185835778
| 44> H -4.056685608863587 -0.8007032687197743 2.700510094568531
| 45> H -5.035432836012415 -2.074832131230005 3.4451658903378677
| 46> *
| 47>
| 48> % eprnmr
| 49> gtensor true
| 50> Nuclei = all H {aiso,adip,aorb,fgrad,rho}
| 51> Nuclei = all V {aiso,adip,aorb,fgrad,rho}
| 52> end
| 53>
| 54>                          ****END OF INPUT****

CARTESIAN COORDINATES (ANGSTROEM)
---------------------------------
  V      0.398603   -0.836410   -0.624454
  S     -1.892703   -0.331501   -1.312055
  S      1.013494    1.250294   -1.779422
  S     -0.866150   -1.750711    1.250575
  S      2.156944   -0.333467    1.022319
  O      1.054853   -1.989964   -1.519478
  C      2.500087    1.662672   -0.899182
  C      2.952583    1.034672    0.216939
  C     -2.972068   -1.431337   -0.432638
  C     -2.522480   -2.051395    0.691721
  S      3.599865    2.889769   -1.657431
  S      4.597656    1.502705    0.819495
  S     -3.479611   -3.003918    1.909017
  S     -4.672592   -1.364757   -1.071455
  C      4.379066    3.186355    1.578954
  C     -4.647680   -1.697590    2.488685
  C      3.522516    4.368072   -0.532220
  C     -5.504416   -0.509245    0.336285
  C      4.521216    4.373152    0.625340
  H      2.495477    4.443527   -0.164839
  H      3.706704    5.228249   -1.188761
  H      4.386106    5.306344    1.202988
  H      5.544178    4.393735    0.221553
  H      5.149481    3.240016    2.359762
  H      3.403079    3.196407    2.072979
  C     -5.822483   -1.371295    1.561646
  H     -6.441142   -0.120675   -0.087063
  H     -4.881726    0.347987    0.611349
  H     -6.298666   -2.306039    1.234806
  H     -6.569843   -0.821090    2.163565
  H     -4.056203   -0.801553    2.699836
  H     -5.034950   -2.075681    3.444492

 Total Charge           Charge          ....   -2
 Multiplicity           Mult            ....    2
 Number of Electrons    NEL             ....  233
 Basis Dimension        Dim             ....  517

ORBITAL ENERGIES
----------------
                 SPIN UP ORBITALS
  NO   OCC          E(Eh)            E(eV)
   0   1.0000    -196.640653     -5350.8642
   1   1.0000     -88.682686     -2413.1786
   2   1.0000     -88.682590     -2413.1759
   3   1.0000     -88.670855     -2412.8566
   4   1.0000     -88.670766     -2412.8542
   5   1.0000     -88.613400     -2411.2932
   6   1.0000     -88.613293     -2411.2903
   7   1.0000     -88.611870     -2411.2516
   8   1.0000     -88.611777     -2411.2490
   9   1.0000     -22.016263      -599.0930
  10   1.0000     -18.856793      -513.1194
  11   1.0000     -18.523105      -504.0393
  12   1.0000     -18.517313      -503.8817
  13   1.0000     -18.517280      -503.8808
  14   1.0000     -10.018121      -272.6069
  15   1.0000     -10.018114      -272.6067
  16   1.0000     -10.014487      -272.5081
  17   1.0000     -10.014244      -272.5014
  18   1.0000     -10.006281      -272.2847
  19   1.0000     -10.005730      -272.2697
  20   1.0000      -9.995198      -271.9832
  21   1.0000      -9.994494      -271.9640
  22   1.0000      -9.991660      -271.8869
  23   1.0000      -9.990931      -271.8671
  24   1.0000      -7.735857      -210.5034
  25   1.0000      -7.735777      -210.5012
  26   1.0000      -7.724481      -210.1938
  27   1.0000      -7.724410      -210.1919
  28   1.0000      -7.667379      -208.6400
  29   1.0000      -7.667351      -208.6392
  30   1.0000      -7.666349      -208.6120
  31   1.0000      -7.666203      -208.6080
  32   1.0000      -5.701099      -155.1348
  33   1.0000      -5.701006      -155.1323
  34   1.0000      -5.697313      -155.0318
  35   1.0000      -5.697244      -155.0299
  36   1.0000      -5.690606      -154.8493
  37   1.0000      -5.690528      -154.8471
  38   1.0000      -5.689761      -154.8263
  39   1.0000      -5.689679      -154.8240
  40   1.0000      -5.685882      -154.7207
  41   1.0000      -5.685827      -154.7192
  42   1.0000      -5.679118      -154.5367
  43   1.0000      -5.679040      -154.5345
  44   1.0000      -5.632351      -153.2641
  45   1.0000      -5.632304      -153.2628
  46   1.0000      -5.631169      -153.2319
  47   1.0000      -5.631040      -153.2284
  48   1.0000      -5.625942      -153.0897
  49   1.0000      -5.625903      -153.0886
  50   1.0000      -5.625213      -153.0698
  51   1.0000      -5.625162      -153.0684
  52   1.0000      -5.624813      -153.0589
  53   1.0000      -5.624677      -153.0552
  54   1.0000      -5.624293      -153.0448
  55   1.0000      -5.624140      -153.0406
  56   1.0000      -2.409888       -65.5764
  57   1.0000      -1.450953       -39.4824
  58   1.0000      -1.439574       -39.1728
  59   1.0000      -1.438754       -39.1505
  60   1.0000      -0.643671       -17.5152
  61   1.0000      -0.641464       -17.4551
  62   1.0000      -0.617664       -16.8075
  63   1.0000      -0.593028       -16.1371
  64   1.0000      -0.592493       -16.1226
  65   1.0000      -0.580669       -15.8008
  66   1.0000      -0.565822       -15.3968
  67   1.0000      -0.492602       -13.4044
  68   1.0000      -0.487736       -13.2720
  69   1.0000      -0.486323       -13.2335
  70   1.0000      -0.483224       -13.1492
  71   1.0000      -0.421539       -11.4707
  72   1.0000      -0.418713       -11.3938
  73   1.0000      -0.412470       -11.2239
  74   1.0000      -0.406926       -11.0730
  75   1.0000      -0.379361       -10.3229
  76   1.0000      -0.370982       -10.0949
  77   1.0000      -0.292307        -7.9541
  78   1.0000      -0.292107        -7.9486
  79   1.0000      -0.277638        -7.5549
  80   1.0000      -0.275390        -7.4937
  81   1.0000      -0.260296        -7.0830
  82   1.0000      -0.253654        -6.9023
  83   1.0000      -0.242202        -6.5906
  84   1.0000      -0.236052        -6.4233
  85   1.0000      -0.196108        -5.3364
  86   1.0000      -0.194760        -5.2997
  87   1.0000      -0.191360        -5.2072
  88   1.0000      -0.187376        -5.0988
  89   1.0000      -0.184066        -5.0087
  90   1.0000      -0.182799        -4.9742
  91   1.0000      -0.180229        -4.9043
  92   1.0000      -0.151068        -4.1108
  93   1.0000      -0.150957        -4.1077
  94   1.0000      -0.145654        -3.9635
  95   1.0000      -0.141223        -3.8429
  96   1.0000      -0.139880        -3.8063
  97   1.0000      -0.097348        -2.6490
  98   1.0000      -0.095918        -2.6101
  99   1.0000      -0.089105        -2.4247
 100   1.0000      -0.083481        -2.2716
 101   1.0000      -0.082098        -2.2340
 102   1.0000      -0.076242        -2.0747
 103   1.0000      -0.068745        -1.8706
 104   1.0000      -0.051367        -1.3978
 105   1.0000      -0.042740        -1.1630
 106   1.0000      -0.042521        -1.1570
 107   1.0000      -0.035093        -0.9549
 108   1.0000      -0.027978        -0.7613
 109   1.0000      -0.012966        -0.3528
 110   1.0000      -0.005591        -0.1521
 111   1.0000      -0.001159        -0.0315
 112   1.0000       0.011032         0.3002
 113   1.0000       0.016105         0.4382
 114   1.0000       0.016967         0.4617
 115   1.0000       0.032608         0.8873
 116   1.0000       0.058266         1.5855
 117   0.0000       0.187975         5.1151
 118   0.0000       0.195257         5.3132
 119   0.0000       0.195413         5.3174
 120   0.0000       0.195677         5.3246
 121   0.0000       0.209750         5.7076

                 SPIN DOWN ORBITALS
  NO   OCC          E(Eh)            E(eV)
   0   1.0000    -196.640793     -5350.8680
   1   1.0000     -88.682703     -2413.1790
   2   1.0000     -88.682606     -2413.1764
   3   1.0000     -88.670863     -2412.8568
   4   1.0000     -88.670774     -2412.8544
   5   1.0000     -88.613560     -2411.2976
   6   1.0000     -88.613454     -2411.2947
   7   1.0000     -88.612035     -2411.2560
   8   1.0000     -88.611940     -2411.2535
   9   1.0000     -22.001522      -598.6919
  10   1.0000     -18.860408      -513.2178
  11   1.0000     -18.517923      -503.8983
  12   1.0000     -18.501713      -503.4572
  13   1.0000     -18.501125      -503.4412
  14   1.0000     -10.018117      -272.6068
  15   1.0000     -10.018110      -272.6066
  16   1.0000     -10.014484      -272.5080
  17   1.0000     -10.014241      -272.5013
  18   1.0000     -10.006281      -272.2848
  19   1.0000     -10.005728      -272.2697
  20   1.0000      -9.994972      -271.9770
  21   1.0000      -9.994270      -271.9579
  22   1.0000      -9.991384      -271.8794
  23   1.0000      -9.990658      -271.8596
  24   1.0000      -7.735874      -210.5038
  25   1.0000      -7.735794      -210.5016
  26   1.0000      -7.724490      -210.1941
  27   1.0000      -7.724418      -210.1921
  28   1.0000      -7.667528      -208.6440
  29   1.0000      -7.667499      -208.6433
  30   1.0000      -7.666504      -208.6162
  31   1.0000      -7.666356      -208.6122
  32   1.0000      -5.701119      -155.1353
  33   1.0000      -5.701026      -155.1328
  34   1.0000      -5.697335      -155.0324
  35   1.0000      -5.697265      -155.0305
  36   1.0000      -5.690631      -154.8499
  37   1.0000      -5.690552      -154.8478
  38   1.0000      -5.689770      -154.8265
  39   1.0000      -5.689689      -154.8243
  40   1.0000      -5.685895      -154.7211
  41   1.0000      -5.685841      -154.7196
  42   1.0000      -5.679128      -154.5369
  43   1.0000      -5.679049      -154.5348
  44   1.0000      -5.632520      -153.2687
  45   1.0000      -5.632473      -153.2674
  46   1.0000      -5.631342      -153.2366
  47   1.0000      -5.631210      -153.2330
  48   1.0000      -5.626347      -153.1007
  49   1.0000      -5.626308      -153.0996
  50   1.0000      -5.625343      -153.0734
  51   1.0000      -5.625292      -153.0720
  52   1.0000      -5.625182      -153.0690
  53   1.0000      -5.625047      -153.0653
  54   1.0000      -5.624468      -153.0496
  55   1.0000      -5.624313      -153.0453
  56   1.0000      -2.365493       -64.3683
  57   1.0000      -1.431868       -38.9631
  58   1.0000      -1.378028       -37.4980
  59   1.0000      -1.377515       -37.4841
  60   1.0000      -0.643630       -17.5141
  61   1.0000      -0.641408       -17.4536
  62   1.0000      -0.625451       -17.0194
  63   1.0000      -0.592840       -16.1320
  64   1.0000      -0.592305       -16.1174
  65   1.0000      -0.580680       -15.8011
  66   1.0000      -0.565798       -15.3962
  67   1.0000      -0.492670       -13.4062
  68   1.0000      -0.487727       -13.2717
  69   1.0000      -0.486369       -13.2348
  70   1.0000      -0.483224       -13.1492
  71   1.0000      -0.421791       -11.4775
  72   1.0000      -0.419026       -11.4023
  73   1.0000      -0.412504       -11.2248
  74   1.0000      -0.407035       -11.0760
  75   1.0000      -0.379334       -10.3222
  76   1.0000      -0.371013       -10.0958
  77   1.0000      -0.292285        -7.9535
  78   1.0000      -0.292095        -7.9483
  79   1.0000      -0.277626        -7.5546
  80   1.0000      -0.275364        -7.4930
  81   1.0000      -0.260151        -7.0791
  82   1.0000      -0.253569        -6.9000
  83   1.0000      -0.242116        -6.5883
  84   1.0000      -0.235950        -6.4205
  85   1.0000      -0.196075        -5.3355
  86   1.0000      -0.194377        -5.2893
  87   1.0000      -0.191270        -5.2047
  88   1.0000      -0.187335        -5.0976
  89   1.0000      -0.184017        -5.0073
  90   1.0000      -0.182734        -4.9724
  91   1.0000      -0.178133        -4.8472
  92   1.0000      -0.150814        -4.1038
  93   1.0000      -0.150337        -4.0909
  94   1.0000      -0.145466        -3.9583
  95   1.0000      -0.140993        -3.8366
  96   1.0000      -0.139642        -3.7999
  97   1.0000      -0.095863        -2.6086
  98   1.0000      -0.095300        -2.5932
  99   1.0000      -0.089182        -2.4268
 100   1.0000      -0.083574        -2.2742
 101   1.0000      -0.082836        -2.2541
 102   1.0000      -0.077178        -2.1001
 103   1.0000      -0.069922        -1.9027
 104   1.0000      -0.047823        -1.3013
 105   1.0000      -0.042784        -1.1642
 106   1.0000      -0.042289        -1.1507
 107   1.0000      -0.033979        -0.9246
 108   1.0000      -0.026876        -0.7313
 109   1.0000      -0.012087        -0.3289
 110   1.0000      -0.006493        -0.1767
 111   1.0000      -0.001031        -0.0280
 112   1.0000       0.012021         0.3271
 113   1.0000       0.017721         0.4822
 114   1.0000       0.032876         0.8946
 115   1.0000       0.057436         1.5629
 116   0.0000       0.185118         5.0373
 117   0.0000       0.189305         5.1513
 118   0.0000       0.195434         5.3180
 119   0.0000       0.196047         5.3347
 120   0.0000       0.196321         5.3422

MULLIKEN ATOMIC CHARGES AND SPIN POPULATIONS
--------------------------------------------
   0 V :    0.446003    1.203843
   1 S :   -0.247846   -0.023873
   2 S :   -0.266341   -0.026147
   3 S :   -0.245430   -0.023899
   4 S :   -0.264436   -0.026112
   5 O :   -0.507351   -0.140307
   6 C :   -0.108335    0.010159
   7 C :   -0.107358    0.010197
   8 C :   -0.118556    0.007638
   9 C :   -0.120070    0.007769
  10 S :   -0.049745    0.000454
  11 S :   -0.049383    0.000364
  12 S :   -0.044170   -0.000707
  13 S :   -0.044548   -0.000691
  14 C :   -0.327931    0.000090
  15 C :   -0.335121    0.000469
  16 C :   -0.328223    0.000032
  17 C :   -0.336072    0.000477
  18 C :   -0.105800    0.000341
  19 H :    0.145176   -0.000020
  20 H :    0.101961    0.000008
  21 H :    0.049991    0.000145
  22 H :    0.076750    0.000061
  23 H :    0.101522    0.000012
  24 H :    0.144393   -0.000030
  25 C :   -0.084957    0.000001
  26 H :    0.100312    0.000060
  27 H :    0.149243   -0.000184
  28 H :    0.084060   -0.000010
  29 H :    0.043714   -0.000018
  30 H :    0.148267   -0.000183
  31 H :    0.100281    0.000061
Sum of atomic charges         :   -2.0000000

LOEWDIN ATOMIC CHARGES AND SPIN POPULATIONS
-------------------------------------------
   0 V :   -0.238741    1.157524
   1 S :    0.088206   -0.016852
   2 S :    0.079981   -0.017307
   3 S :    0.090940   -0.016825
   4 S :    0.082275   -0.017270
   5 O :   -0.354079   -0.125744
   6 C :   -0.548331    0.010631
   7 C :   -0.547889    0.010690
   8 C :   -0.544406    0.008988
   9 C :   -0.544416    0.009177
  10 S :    0.327908   -0.000381
  11 S :    0.328052   -0.000437
  12 S :    0.332432   -0.001439
  13 S :    0.332388   -0.001417
  14 C :   -0.294751    0.000188
  15 C :   -0.292323    0.000158
  16 C :   -0.294549    0.000164
  17 C :   -0.292318    0.000157
  18 C :   -0.185683    0.000020
  19 H :    0.065773    0.000002
  20 H :    0.047651    0.000005
  21 H :    0.048735    0.000081
  22 H :    0.052742    0.000033
  23 H :    0.047793    0.000009
  24 H :    0.065592   -0.000000
  25 C :   -0.184760   -0.000049
  26 H :    0.047178    0.000009
  27 H :    0.067169   -0.000051
  28 H :    0.055739   -0.000010
  29 H :    0.047783   -0.000013
  30 H :    0.066759   -0.000051
  31 H :    0.047152    0.000010

  Mayer bond orders larger than 0.100000
B(  0-V ,  1-S ) :   0.8000 B(  0-V ,  2-S ) :   0.7742 B(  0-V ,  3-S ) :   0.8055
B(  0-V ,  4-S ) :   0.7754 B(  0-V ,  5-O ) :   2.1076 B(  1-S ,  8-C ) :   1.1230
B(  2-S ,  6-C ) :   1.1456 B(  3-S ,  9-C ) :   1.1223 B(  4-S ,  7-C ) :   1.1461
B(  6-C ,  7-C ) :   1.4954 B(  6-C , 10-S ) :   0.9470 B(  7-C , 11-S ) :   0.9472
B(  8-C ,  9-C ) :   1.5544 B(  8-C , 13-S ) :   0.9608 B(  9-C , 12-S ) :   0.9615
B( 10-S , 16-C ) :   0.9935 B( 11-S , 14-C ) :   0.9946 B( 12-S , 15-C ) :   1.0165
B( 13-S , 17-C ) :   1.0158 B( 14-C , 18-C ) :   0.8865 B( 14-C , 23-H ) :   0.9701
B( 14-C , 24-H ) :   0.9763 B( 15-C , 25-C ) :   0.8734 B( 15-C , 30-H ) :   0.9740
B( 15-C , 31-H ) :   0.9690 B( 16-C , 18-C ) :   0.8870 B( 16-C , 19-H ) :   0.9764
B( 16-C , 20-H ) :   0.9698 B( 17-C , 25-C ) :   0.8729 B( 17-C , 26-H ) :   0.9687
B( 17-C , 27-H ) :   0.9741 B( 18-C , 21-H ) :   0.9538 B( 18-C , 22-H ) :   0.9780
B( 25-C , 28-H ) :   0.9696 B( 25-C , 29-H ) :   0.9557

FINAL SINGLE POINT ENERGY     -4592.708034313143

DIPOLE MOMENT
-------------
                                X             Y             Z
Electronic contribution:      8.63870     -20.46307     -14.82445
Nuclear contribution   :     -9.90656      22.66362      16.55828
                        -----------------------------------------
Total Dipole Moment    :     -1.26787       2.20055       1.73383
                        -----------------------------------------
Magnitude (a.u.)       :      3.07508
Magnitude (Debye)      :      7.81622

Rotational constants in cm-1:     0.012728     0.002547     0.002430
Rotational constants in MHz :   381.588189    76.371901    72.835420

                             ****ORCA TERMINATED NORMALLY****
TOTAL RUN TIME: 0 days 0 hours 42 minutes 58 seconds 158 msec
