                         Program Version 5.0.4 -  RELEASE  -
|  1> ! nofrozencore ReducedPop printbasis
|  2> ! B3LYP TZVP
|  3>
|  4> %basis
|  5> newgto V "CP(PPP)" end
|  6> end
|  7>
|  8> %pal
|  9> nprocs 8
| 10> end
| 11>
| 12> % sym SymThresh 1e-2 end
| 13> * xyz -2 2
| 14> V -1.0418029754927522 0.1493368833351442 -0.3699558720336708
| 15> S -0.46026711503284495 2.023855575672666 1.1250846018797889
| 16> S 0.5276809212617484 1.2228684004164405 -1.940975767673901
| 17> S -1.2008111806156558 -1.0966486589882236 1.7131723658644995
| 18> S -0.23030179770160658 -1.9014619548274116 -1.3998525057152726
| 19> O -2.5401888734880784 0.342838638120681 -0.8903159316978011
| 20> C 0.914442148515461 -0.05814403265982017 -3.0984369334432937
| 21> C 0.5796363501414729 -1.3562503630032572 -2.8725686888880837
| 22> C -0.9515833111981322 1.4540720079848721 2.7259249897025857
| 23> C -1.2768652491359886 0.1546543391844552 2.9588872690648946
| 24> S 1.7721826182688833 0.4823010066149521 -4.5971017347252445
| 25> S 0.9913970972101349 -2.679160361988112 -4.02015228162778
| 26> S -1.7470435321913766 -0.4530661681625075 4.585618990199341
| 27> S -0.9934283347909126 2.7181943469799776 4.020232247528201
| 28> C 2.830965902937446 -2.730663429152746 -3.876364863507734
| 29> C -0.1577000022484357 -0.291501725310052 5.50932943272356
| 30> C 3.450502464313193 -0.2884326259185436 -4.473151603020885
| 31> C 0.355108607390493 2.2267059813217895 5.188021571646069
| 32> C 3.5700661311719224 -1.7764472495615207 -4.816283756600151
| 33> H 3.824398491180464 -0.09185347255150497 -3.4603519295610417
| 34> H 4.063105723651186 0.29600011248388847 -5.1744619964080805
| 35> H 4.641540271773815 -2.033844150986174 -4.796582391687459
| 36> H 3.2211035309213494 -1.9444296114026207 -5.842754933436424
| 37> H 3.1197345003352526 -3.7674451325958542 -4.098885559007078
| 38> H 3.0736186375894934 -2.5305883515381775 -2.8258995600629193
| 39> C 0.06521983800743514 1.0763188883274422 6.1565850812687435
| 40> H 0.5539269297642988 3.142624242430017 5.762699903746686
| 41> H 1.2461944540776349 2.0128024077643065 4.5842308645204985
| 42> H -0.8087552391860503 1.3269597440178833 6.770625539943419
| 43> H 0.925234235893097 0.9980159720686671 6.841299387889932
| 44> H 0.6459481788757686 -0.5422058920146322 4.806650991829207
| 45> H -0.18274648174520042 -1.0688747811997203 6.2858114198182875
| 46> *
| 47>
| 48> % eprnmr
| 49> gtensor true
| 50> Nuclei = all H {aiso,adip,aorb,fgrad,rho}
| 51> Nuclei = all V {aiso,adip,aorb,fgrad,rho}
| 52> end
| 53>
| 54>                          ****END OF INPUT****

CARTESIAN COORDINATES (ANGSTROEM)
---------------------------------
  V     -1.042877    0.149510   -0.370430
  S     -0.461341    2.024028    1.124610
  S      0.526607    1.223041   -1.941450
  S     -1.201885   -1.096476    1.712698
  S     -0.231376   -1.901289   -1.400327
  O     -2.541263    0.343011   -0.890790
  C      0.913368   -0.057971   -3.098911
  C      0.578562   -1.356078   -2.873043
  C     -0.952657    1.454245    2.725450
  C     -1.277939    0.154827    2.958413
  S      1.771109    0.482474   -4.597576
  S      0.990323   -2.678988   -4.020627
  S     -1.748117   -0.452894    4.585144
  S     -0.994502    2.718367    4.019758
  C      2.829892   -2.730491   -3.876839
  C     -0.158774   -0.291329    5.508855
  C      3.449429   -0.288260   -4.473626
  C      0.354035    2.226879    5.187547
  C      3.568992   -1.776275   -4.816758
  H      3.823325   -0.091681   -3.460826
  H      4.062032    0.296173   -5.174937
  H      4.640466   -2.033671   -4.797057
  H      3.220030   -1.944257   -5.843229
  H      3.118661   -3.767272   -4.099360
  H      3.072545   -2.530416   -2.826374
  C      0.064146    1.076492    6.156111
  H      0.552853    3.142797    5.762225
  H      1.245121    2.012975    4.583756
  H     -0.809829    1.327132    6.770151
  H      0.924160    0.998189    6.840825
  H      0.644874   -0.542033    4.806176
  H     -0.183820   -1.068702    6.285337

 Total Charge           Charge          ....   -2
 Multiplicity           Mult            ....    2
 Number of Electrons    NEL             ....  233
 Basis Dimension        Dim             ....  517

ORBITAL ENERGIES
----------------
                 SPIN UP ORBITALS
  NO   OCC          E(Eh)            E(eV)
   0   1.0000    -196.640161     -5350.8508
   1   1.0000     -88.677373     -2413.0340
   2   1.0000     -88.677312     -2413.0323
   3   1.0000     -88.675667     -2412.9876
   4   1.0000     -88.675595     -2412.9856
   5   1.0000     -88.612202     -2411.2606
   6   1.0000     -88.612175     -2411.2599
   7   1.0000     -88.611723     -2411.2476
   8   1.0000     -88.611632     -2411.2451
   9   1.0000     -22.015962      -599.0848
  10   1.0000     -18.856912      -513.1227
  11   1.0000     -18.522788      -504.0307
  12   1.0000     -18.517013      -503.8735
  13   1.0000     -18.516974      -503.8725
  14   1.0000     -10.017827      -272.5989
  15   1.0000     -10.017757      -272.5970
  16   1.0000     -10.015321      -272.5307
  17   1.0000     -10.015212      -272.5278
  18   1.0000     -10.005308      -272.2583
  19   1.0000     -10.005226      -272.2560
  20   1.0000      -9.992255      -271.9031
  21   1.0000      -9.992172      -271.9008
  22   1.0000      -9.990747      -271.8621
  23   1.0000      -9.990668      -271.8599
  24   1.0000      -7.730733      -210.3639
  25   1.0000      -7.730699      -210.3630
  26   1.0000      -7.729535      -210.3313
  27   1.0000      -7.729472      -210.3296
  28   1.0000      -7.666789      -208.6239
  29   1.0000      -7.666754      -208.6230
  30   1.0000      -7.666000      -208.6025
  31   1.0000      -7.665954      -208.6012
  32   1.0000      -5.696039      -154.9971
  33   1.0000      -5.696005      -154.9962
  34   1.0000      -5.694727      -154.9614
  35   1.0000      -5.694660      -154.9596
  36   1.0000      -5.692060      -154.8888
  37   1.0000      -5.692017      -154.8877
  38   1.0000      -5.690930      -154.8581
  39   1.0000      -5.690869      -154.8564
  40   1.0000      -5.685500      -154.7103
  41   1.0000      -5.685465      -154.7094
  42   1.0000      -5.684263      -154.6767
  43   1.0000      -5.684199      -154.6749
  44   1.0000      -5.631604      -153.2437
  45   1.0000      -5.631565      -153.2427
  46   1.0000      -5.630874      -153.2239
  47   1.0000      -5.630834      -153.2228
  48   1.0000      -5.625223      -153.0701
  49   1.0000      -5.625180      -153.0689
  50   1.0000      -5.624756      -153.0574
  51   1.0000      -5.624738      -153.0569
  52   1.0000      -5.624442      -153.0488
  53   1.0000      -5.624378      -153.0471
  54   1.0000      -5.623994      -153.0367
  55   1.0000      -5.623936      -153.0351
  56   1.0000      -2.409592       -65.5683
  57   1.0000      -1.450815       -39.4787
  58   1.0000      -1.439403       -39.1681
  59   1.0000      -1.438317       -39.1386
  60   1.0000      -0.643057       -17.4985
  61   1.0000      -0.642981       -17.4964
  62   1.0000      -0.617931       -16.8148
  63   1.0000      -0.593499       -16.1499
  64   1.0000      -0.593058       -16.1379
  65   1.0000      -0.575134       -15.6502
  66   1.0000      -0.575023       -15.6472
  67   1.0000      -0.491260       -13.3679
  68   1.0000      -0.489375       -13.3166
  69   1.0000      -0.487135       -13.2556
  70   1.0000      -0.485949       -13.2233
  71   1.0000      -0.422771       -11.5042
  72   1.0000      -0.419939       -11.4271
  73   1.0000      -0.412202       -11.2166
  74   1.0000      -0.407017       -11.0755
  75   1.0000      -0.375990       -10.2312
  76   1.0000      -0.372857       -10.1459
  77   1.0000      -0.291801        -7.9403
  78   1.0000      -0.291621        -7.9354
  79   1.0000      -0.277368        -7.5476
  80   1.0000      -0.277101        -7.5403
  81   1.0000      -0.260123        -7.0783
  82   1.0000      -0.255241        -6.9455
  83   1.0000      -0.241594        -6.5741
  84   1.0000      -0.238813        -6.4984
  85   1.0000      -0.195222        -5.3123
  86   1.0000      -0.192168        -5.2292
  87   1.0000      -0.191929        -5.2226
  88   1.0000      -0.191154        -5.2016
  89   1.0000      -0.184607        -5.0234
  90   1.0000      -0.184368        -5.0169
  91   1.0000      -0.180898        -4.9225
  92   1.0000      -0.150720        -4.1013
  93   1.0000      -0.149738        -4.0746
  94   1.0000      -0.143299        -3.8994
  95   1.0000      -0.143234        -3.8976
  96   1.0000      -0.141688        -3.8555
  97   1.0000      -0.097552        -2.6545
  98   1.0000      -0.095958        -2.6112
  99   1.0000      -0.089393        -2.4325
 100   1.0000      -0.083269        -2.2659
 101   1.0000      -0.081469        -2.2169
 102   1.0000      -0.079766        -2.1706
 103   1.0000      -0.069447        -1.8897
 104   1.0000      -0.050142        -1.3644
 105   1.0000      -0.039051        -1.0626
 106   1.0000      -0.037017        -1.0073
 107   1.0000      -0.035735        -0.9724
 108   1.0000      -0.031739        -0.8637
 109   1.0000      -0.012902        -0.3511
 110   1.0000      -0.004231        -0.1151
 111   1.0000      -0.003196        -0.0870
 112   1.0000       0.006289         0.1711
 113   1.0000       0.010684         0.2907
 114   1.0000       0.016382         0.4458
 115   1.0000       0.033676         0.9164
 116   1.0000       0.059878         1.6294
 117   0.0000       0.187990         5.1155
 118   0.0000       0.195485         5.3194
 119   0.0000       0.196185         5.3385
 120   0.0000       0.196472         5.3463
 121   0.0000       0.211293         5.7496

                 SPIN DOWN ORBITALS
  NO   OCC          E(Eh)            E(eV)
   0   1.0000    -196.640302     -5350.8547
   1   1.0000     -88.677385     -2413.0343
   2   1.0000     -88.677325     -2413.0327
   3   1.0000     -88.675681     -2412.9879
   4   1.0000     -88.675609     -2412.9860
   5   1.0000     -88.612364     -2411.2650
   6   1.0000     -88.612337     -2411.2643
   7   1.0000     -88.611881     -2411.2519
   8   1.0000     -88.611789     -2411.2494
   9   1.0000     -22.001287      -598.6854
  10   1.0000     -18.860496      -513.2202
  11   1.0000     -18.517651      -503.8909
  12   1.0000     -18.501520      -503.4520
  13   1.0000     -18.500832      -503.4332
  14   1.0000     -10.017825      -272.5989
  15   1.0000     -10.017754      -272.5969
  16   1.0000     -10.015316      -272.5306
  17   1.0000     -10.015206      -272.5276
  18   1.0000     -10.005307      -272.2583
  19   1.0000     -10.005226      -272.2560
  20   1.0000      -9.992023      -271.8968
  21   1.0000      -9.991939      -271.8945
  22   1.0000      -9.990473      -271.8546
  23   1.0000      -9.990391      -271.8524
  24   1.0000      -7.730746      -210.3643
  25   1.0000      -7.730712      -210.3634
  26   1.0000      -7.729550      -210.3317
  27   1.0000      -7.729486      -210.3300
  28   1.0000      -7.666940      -208.6280
  29   1.0000      -7.666904      -208.6271
  30   1.0000      -7.666147      -208.6065
  31   1.0000      -7.666101      -208.6052
  32   1.0000      -5.696055      -154.9975
  33   1.0000      -5.696022      -154.9966
  34   1.0000      -5.694744      -154.9619
  35   1.0000      -5.694678      -154.9601
  36   1.0000      -5.692080      -154.8894
  37   1.0000      -5.692037      -154.8882
  38   1.0000      -5.690950      -154.8586
  39   1.0000      -5.690889      -154.8570
  40   1.0000      -5.685514      -154.7107
  41   1.0000      -5.685480      -154.7098
  42   1.0000      -5.684282      -154.6772
  43   1.0000      -5.684218      -154.6754
  44   1.0000      -5.631782      -153.2486
  45   1.0000      -5.631743      -153.2475
  46   1.0000      -5.631039      -153.2284
  47   1.0000      -5.631000      -153.2273
  48   1.0000      -5.625613      -153.0807
  49   1.0000      -5.625569      -153.0795
  50   1.0000      -5.624897      -153.0612
  51   1.0000      -5.624877      -153.0607
  52   1.0000      -5.624832      -153.0595
  53   1.0000      -5.624771      -153.0578
  54   1.0000      -5.624127      -153.0403
  55   1.0000      -5.624068      -153.0387
  56   1.0000      -2.365390       -64.3655
  57   1.0000      -1.431957       -38.9655
  58   1.0000      -1.377989       -37.4970
  59   1.0000      -1.377315       -37.4786
  60   1.0000      -0.643007       -17.4971
  61   1.0000      -0.642928       -17.4949
  62   1.0000      -0.625623       -17.0241
  63   1.0000      -0.593314       -16.1449
  64   1.0000      -0.592850       -16.1323
  65   1.0000      -0.575129       -15.6501
  66   1.0000      -0.575018       -15.6470
  67   1.0000      -0.491287       -13.3686
  68   1.0000      -0.489413       -13.3176
  69   1.0000      -0.487137       -13.2557
  70   1.0000      -0.485969       -13.2239
  71   1.0000      -0.423009       -11.5107
  72   1.0000      -0.420248       -11.4355
  73   1.0000      -0.412216       -11.2170
  74   1.0000      -0.407116       -11.0782
  75   1.0000      -0.375944       -10.2300
  76   1.0000      -0.372883       -10.1467
  77   1.0000      -0.291776        -7.9396
  78   1.0000      -0.291611        -7.9351
  79   1.0000      -0.277343        -7.5469
  80   1.0000      -0.277088        -7.5399
  81   1.0000      -0.259918        -7.0727
  82   1.0000      -0.255203        -6.9444
  83   1.0000      -0.241492        -6.5713
  84   1.0000      -0.238740        -6.4964
  85   1.0000      -0.194768        -5.2999
  86   1.0000      -0.192122        -5.2279
  87   1.0000      -0.191872        -5.2211
  88   1.0000      -0.191133        -5.2010
  89   1.0000      -0.184548        -5.0218
  90   1.0000      -0.184317        -5.0155
  91   1.0000      -0.178790        -4.8651
  92   1.0000      -0.150041        -4.0828
  93   1.0000      -0.149436        -4.0664
  94   1.0000      -0.143110        -3.8942
  95   1.0000      -0.142905        -3.8886
  96   1.0000      -0.141612        -3.8535
  97   1.0000      -0.096475        -2.6252
  98   1.0000      -0.095016        -2.5855
  99   1.0000      -0.089517        -2.4359
 100   1.0000      -0.083304        -2.2668
 101   1.0000      -0.081590        -2.2202
 102   1.0000      -0.081024        -2.2048
 103   1.0000      -0.070767        -1.9257
 104   1.0000      -0.045967        -1.2508
 105   1.0000      -0.038793        -1.0556
 106   1.0000      -0.036704        -0.9988
 107   1.0000      -0.034775        -0.9463
 108   1.0000      -0.031639        -0.8609
 109   1.0000      -0.012011        -0.3268
 110   1.0000      -0.005560        -0.1513
 111   1.0000      -0.002183        -0.0594
 112   1.0000       0.007142         0.1943
 113   1.0000       0.011630         0.3165
 114   1.0000       0.033933         0.9234
 115   1.0000       0.059083         1.6077
 116   0.0000       0.185311         5.0426
 117   0.0000       0.189235         5.1494
 118   0.0000       0.196054         5.3349
 119   0.0000       0.196218         5.3394
 120   0.0000       0.196790         5.3549

MULLIKEN ATOMIC CHARGES AND SPIN POPULATIONS
--------------------------------------------
   0 V :    0.447394    1.199582
   1 S :   -0.259048   -0.024337
   2 S :   -0.259418   -0.024225
   3 S :   -0.248545   -0.024052
   4 S :   -0.248490   -0.023837
   5 O :   -0.507089   -0.139161
   6 C :   -0.122179    0.007896
   7 C :   -0.109855    0.009824
   8 C :   -0.121337    0.007949
   9 C :   -0.109935    0.009898
  10 S :   -0.045331   -0.000168
  11 S :   -0.043795   -0.000202
  12 S :   -0.043869   -0.000191
  13 S :   -0.045195   -0.000224
  14 C :   -0.345731    0.000480
  15 C :   -0.345078    0.000498
  16 C :   -0.330677    0.000091
  17 C :   -0.331509    0.000135
  18 C :   -0.083571    0.000132
  19 H :    0.137741   -0.000071
  20 H :    0.099243    0.000004
  21 H :    0.044667    0.000040
  22 H :    0.078608    0.000019
  23 H :    0.101713    0.000040
  24 H :    0.156434   -0.000139
  25 C :   -0.083510    0.000131
  26 H :    0.099172    0.000011
  27 H :    0.138097   -0.000077
  28 H :    0.078699    0.000012
  29 H :    0.044606    0.000036
  30 H :    0.156301   -0.000142
  31 H :    0.101484    0.000048
Sum of atomic charges         :   -2.0000000

LOEWDIN ATOMIC CHARGES AND SPIN POPULATIONS
-------------------------------------------
   0 V :   -0.242738    1.153593
   1 S :    0.080656   -0.016718
   2 S :    0.080146   -0.016646
   3 S :    0.095893   -0.016056
   4 S :    0.095808   -0.015953
   5 O :   -0.352092   -0.124595
   6 C :   -0.552419    0.009035
   7 C :   -0.554098    0.010925
   8 C :   -0.551724    0.008999
   9 C :   -0.554216    0.011002
  10 S :    0.334864   -0.000997
  11 S :    0.337317   -0.001075
  12 S :    0.337395   -0.001067
  13 S :    0.334831   -0.001029
  14 C :   -0.292680    0.000237
  15 C :   -0.292753    0.000242
  16 C :   -0.296028    0.000087
  17 C :   -0.296143    0.000108
  18 C :   -0.185401   -0.000034
  19 H :    0.063310   -0.000029
  20 H :    0.048344   -0.000005
  21 H :    0.046567    0.000017
  22 H :    0.053612    0.000012
  23 H :    0.047348    0.000014
  24 H :    0.070236   -0.000023
  25 C :   -0.185447   -0.000037
  26 H :    0.048327    0.000000
  27 H :    0.063356   -0.000030
  28 H :    0.053648    0.000010
  29 H :    0.046565    0.000018
  30 H :    0.070207   -0.000023
  31 H :    0.047310    0.000018

  Mayer bond orders larger than 0.100000
B(  0-V ,  1-S ) :   0.7745 B(  0-V ,  2-S ) :   0.7757 B(  0-V ,  3-S ) :   0.8051
B(  0-V ,  4-S ) :   0.8025 B(  0-V ,  5-O ) :   2.1075 B(  1-S ,  8-C ) :   1.1423
B(  2-S ,  6-C ) :   1.1414 B(  3-S ,  9-C ) :   1.1317 B(  4-S ,  7-C ) :   1.1328
B(  6-C ,  7-C ) :   1.5176 B(  6-C , 10-S ) :   0.9520 B(  7-C , 11-S ) :   0.9557
B(  8-C ,  9-C ) :   1.5180 B(  8-C , 13-S ) :   0.9521 B(  9-C , 12-S ) :   0.9556
B( 10-S , 16-C ) :   1.0156 B( 11-S , 14-C ) :   0.9926 B( 12-S , 15-C ) :   0.9928
B( 13-S , 17-C ) :   1.0162 B( 14-C , 18-C ) :   0.8780 B( 14-C , 23-H ) :   0.9684
B( 14-C , 24-H ) :   0.9755 B( 15-C , 25-C ) :   0.8782 B( 15-C , 30-H ) :   0.9753
B( 15-C , 31-H ) :   0.9684 B( 16-C , 18-C ) :   0.8780 B( 16-C , 19-H ) :   0.9741
B( 16-C , 20-H ) :   0.9701 B( 17-C , 25-C ) :   0.8776 B( 17-C , 26-H ) :   0.9702
B( 17-C , 27-H ) :   0.9740 B( 18-C , 21-H ) :   0.9523 B( 18-C , 22-H ) :   0.9736
B( 25-C , 28-H ) :   0.9737 B( 25-C , 29-H ) :   0.9522

FINAL SINGLE POINT ENERGY     -4592.722945647826

DIPOLE MOMENT
-------------
                                X             Y             Z
Electronic contribution:    -24.79933       4.09628      -8.97154
Nuclear contribution   :     27.63072      -4.63647      10.01427
                        -----------------------------------------
Total Dipole Moment    :      2.83139      -0.54019       1.04273
                        -----------------------------------------
Magnitude (a.u.)       :      3.06527
Magnitude (Debye)      :      7.79130

Rotational constants in cm-1:     0.012768     0.002548     0.002431
Rotational constants in MHz :   382.777426    76.397200    72.876184

                             ****ORCA TERMINATED NORMALLY****
TOTAL RUN TIME: 0 days 0 hours 27 minutes 25 seconds 555 msec
