                         Program Version 5.0.4 -  RELEASE  -
|  1> ! nofrozencore ReducedPop printbasis
|  2> ! B3LYP TZVP
|  3>
|  4> %basis
|  5> newgto V "CP(PPP)" end
|  6> end
|  7>
|  8> %pal
|  9> nprocs 4
| 10> end
| 11>
| 12> % sym SymThresh 1e-2 end
| 13> * xyz -2 2
| 14> V -0.7438966845159531 0.8193275373656492 0.13866151201942417
| 15> S 0.5929674502867242 0.6591022153170757 2.1976797535750254
| 16> S 1.252695395938659 1.7890738706604206 -0.8678384441560691
| 17> S -1.7343255753732654 -1.264621105394613 0.988922030772244
| 18> S -1.1089360542351705 -0.12256713404347079 -2.0817175233997767
| 19> O -1.8113606146791066 1.985802289465127 0.36048011715681094
| 20> C 0.9580108281127655 1.6327518202040248 -2.618997633789717
| 21> C -0.02615213641850524 0.8344058956375012 -3.1250485183883345
| 22> C -0.2550812142051701 -0.531497061828223 3.1740889436544752
| 23> C -1.22517900874094 -1.3335059926087123 2.670447872425002
| 24> S 2.109625392384318 2.5399093502358747 -3.699238118199163
| 25> S -0.2557395483621738 0.6134360455311529 -4.918123325570396
| 26> S -2.102251283887988 -2.5518608864278423 3.651170377191951
| 27> S 0.2754300764423806 -0.5854043402909268 4.886553276104998
| 28> C 1.2120553087029307 -0.33742964053362395 -5.460105977657887
| 29> C -0.7454899086425798 -3.757839929664683 4.053555460605516
| 30> C 3.15051409454144 1.2422173512040209 -4.4633264177662815
| 31> C 1.0501810965663032 -2.2723823658533915 4.987615019486502
| 32> C 2.418076566245595 0.5890841109119834 -5.638687068278922
| 33> H 3.5479969841219727 0.5512221560235575 -3.698226513521599
| 34> H 4.000231203174913 1.814684383922719 -4.8924453533305625
| 35> H 3.175545825368768 0.05928220508176868 -6.272167311482342
| 36> H 2.039249365066441 1.4386572492456964 -6.2481906461770125
| 37> H 0.9275992402179188 -0.6932661573994648 -6.473208466921849
| 38> H 1.3728980715849088 -1.2194678908632368 -4.814314016117666
| 39> C 0.1765662687960855 -3.502449724470845 5.249007329377005
| 40> H 1.837140159843941 -2.1815824484404267 5.752674970110622
| 41> H 1.5485045694845467 -2.4055948321995784 4.017453372828757
| 42> H -0.37236486708648187 -3.4393685783113925 6.203690158277728
| 43> H 0.8616434645537632 -4.374198629232013 5.318765485183339
| 44> H -0.12776707135867785 -3.790676944874903 3.1454631940907043
| 45> H -1.2465039672509468 -4.734099402511351 4.14709139407987
| 46> *
| 47>
| 48> % eprnmr
| 49> gtensor true
| 50> Nuclei = all H {aiso,adip,aorb,fgrad,rho}
| 51> Nuclei = all V {aiso,adip,aorb,fgrad,rho}
| 52> end
| 53>
| 54>                          ****END OF INPUT****

CARTESIAN COORDINATES (ANGSTROEM)
---------------------------------
  V     -0.744667    0.820226    0.138743
  S      0.592197    0.660001    2.197761
  S      1.251925    1.789973   -0.867757
  S     -1.735096   -1.263722    0.989003
  S     -1.109707   -0.121668   -2.081636
  O     -1.812131    1.986701    0.360561
  C      0.957240    1.633651   -2.618916
  C     -0.026923    0.835305   -3.124967
  C     -0.255852   -0.530598    3.174170
  C     -1.225950   -1.332607    2.670529
  S      2.108855    2.540808   -3.699157
  S     -0.256510    0.614335   -4.918042
  S     -2.103022   -2.550962    3.651252
  S      0.274659   -0.584505    4.886634
  C      1.211285   -0.336531   -5.460025
  C     -0.746261   -3.756941    4.053637
  C      3.149743    1.243116   -4.463245
  C      1.049410   -2.271483    4.987696
  C      2.417306    0.589983   -5.638606
  H      3.547226    0.552121   -3.698145
  H      3.999460    1.815583   -4.892364
  H      3.174775    0.060181   -6.272086
  H      2.038479    1.439556   -6.248109
  H      0.926828   -0.692367   -6.473127
  H      1.372127   -1.218569   -4.814233
  C      0.175796   -3.501551    5.249088
  H      1.836369   -2.180684    5.752756
  H      1.547734   -2.404696    4.017535
  H     -0.373136   -3.438470    6.203771
  H      0.860873   -4.373300    5.318847
  H     -0.128538   -3.789778    3.145544
  H     -1.247275   -4.733201    4.147173

 Total Charge           Charge          ....   -2
 Multiplicity           Mult            ....    2
 Number of Electrons    NEL             ....  233
 Basis Dimension        Dim             ....  517

ORBITAL ENERGIES
----------------
                 SPIN UP ORBITALS
  NO   OCC          E(Eh)            E(eV)
   0   1.0000    -196.640061     -5350.8481
   1   1.0000     -88.677219     -2413.0298
   2   1.0000     -88.677206     -2413.0294
   3   1.0000     -88.676075     -2412.9987
   4   1.0000     -88.676019     -2412.9971
   5   1.0000     -88.613513     -2411.2963
   6   1.0000     -88.613444     -2411.2944
   7   1.0000     -88.610938     -2411.2262
   8   1.0000     -88.610860     -2411.2241
   9   1.0000     -22.015889      -599.0828
  10   1.0000     -18.857134      -513.1287
  11   1.0000     -18.522713      -504.0286
  12   1.0000     -18.516936      -503.8714
  13   1.0000     -18.516902      -503.8705
  14   1.0000     -10.021223      -272.6913
  15   1.0000     -10.021163      -272.6897
  16   1.0000     -10.015643      -272.5395
  17   1.0000     -10.015612      -272.5387
  18   1.0000     -10.009119      -272.3620
  19   1.0000     -10.006498      -272.2907
  20   1.0000      -9.995940      -272.0034
  21   1.0000      -9.995246      -271.9845
  22   1.0000      -9.989101      -271.8173
  23   1.0000      -9.988368      -271.7973
  24   1.0000      -7.730722      -210.3636
  25   1.0000      -7.730712      -210.3634
  26   1.0000      -7.729910      -210.3416
  27   1.0000      -7.729858      -210.3401
  28   1.0000      -7.667623      -208.6466
  29   1.0000      -7.667611      -208.6463
  30   1.0000      -7.665617      -208.5920
  31   1.0000      -7.665533      -208.5898
  32   1.0000      -5.695975      -154.9954
  33   1.0000      -5.695974      -154.9953
  34   1.0000      -5.695156      -154.9731
  35   1.0000      -5.695095      -154.9714
  36   1.0000      -5.692060      -154.8888
  37   1.0000      -5.692059      -154.8888
  38   1.0000      -5.691290      -154.8679
  39   1.0000      -5.691242      -154.8666
  40   1.0000      -5.685490      -154.7100
  41   1.0000      -5.685477      -154.7097
  42   1.0000      -5.684598      -154.6858
  43   1.0000      -5.684548      -154.6844
  44   1.0000      -5.632567      -153.2699
  45   1.0000      -5.632557      -153.2697
  46   1.0000      -5.630380      -153.2104
  47   1.0000      -5.630305      -153.2084
  48   1.0000      -5.626067      -153.0931
  49   1.0000      -5.626042      -153.0924
  50   1.0000      -5.625557      -153.0792
  51   1.0000      -5.625537      -153.0786
  52   1.0000      -5.624040      -153.0379
  53   1.0000      -5.623966      -153.0359
  54   1.0000      -5.623630      -153.0267
  55   1.0000      -5.623541      -153.0243
  56   1.0000      -2.409592       -65.5683
  57   1.0000      -1.450952       -39.4824
  58   1.0000      -1.439384       -39.1676
  59   1.0000      -1.438318       -39.1386
  60   1.0000      -0.643813       -17.5191
  61   1.0000      -0.643340       -17.5062
  62   1.0000      -0.618187       -16.8217
  63   1.0000      -0.595849       -16.2139
  64   1.0000      -0.589215       -16.0334
  65   1.0000      -0.579105       -15.7582
  66   1.0000      -0.572923       -15.5900
  67   1.0000      -0.492033       -13.3889
  68   1.0000      -0.486820       -13.2470
  69   1.0000      -0.486564       -13.2401
  70   1.0000      -0.484619       -13.1872
  71   1.0000      -0.422436       -11.4951
  72   1.0000      -0.419418       -11.4129
  73   1.0000      -0.411668       -11.2021
  74   1.0000      -0.406324       -11.0566
  75   1.0000      -0.376114       -10.2346
  76   1.0000      -0.372410       -10.1338
  77   1.0000      -0.293611        -7.9896
  78   1.0000      -0.287968        -7.8360
  79   1.0000      -0.276003        -7.5104
  80   1.0000      -0.275689        -7.5019
  81   1.0000      -0.264213        -7.1896
  82   1.0000      -0.254221        -6.9177
  83   1.0000      -0.243381        -6.6227
  84   1.0000      -0.235374        -6.4049
  85   1.0000      -0.198225        -5.3940
  86   1.0000      -0.198006        -5.3880
  87   1.0000      -0.190319        -5.1788
  88   1.0000      -0.185723        -5.0538
  89   1.0000      -0.185697        -5.0531
  90   1.0000      -0.180942        -4.9237
  91   1.0000      -0.174649        -4.7525
  92   1.0000      -0.150821        -4.1040
  93   1.0000      -0.150306        -4.0900
  94   1.0000      -0.144939        -3.9440
  95   1.0000      -0.142461        -3.8766
  96   1.0000      -0.141090        -3.8392
  97   1.0000      -0.097373        -2.6497
  98   1.0000      -0.096051        -2.6137
  99   1.0000      -0.089842        -2.4447
 100   1.0000      -0.083142        -2.2624
 101   1.0000      -0.081282        -2.2118
 102   1.0000      -0.079945        -2.1754
 103   1.0000      -0.069478        -1.8906
 104   1.0000      -0.050245        -1.3672
 105   1.0000      -0.038317        -1.0426
 106   1.0000      -0.038241        -1.0406
 107   1.0000      -0.035611        -0.9690
 108   1.0000      -0.031531        -0.8580
 109   1.0000      -0.013168        -0.3583
 110   1.0000      -0.004702        -0.1279
 111   1.0000      -0.003263        -0.0888
 112   1.0000       0.006307         0.1716
 113   1.0000       0.010479         0.2851
 114   1.0000       0.016327         0.4443
 115   1.0000       0.032964         0.8970
 116   1.0000       0.059626         1.6225
 117   0.0000       0.187513         5.1025
 118   0.0000       0.194045         5.2802
 119   0.0000       0.195138         5.3100
 120   0.0000       0.196162         5.3378
 121   0.0000       0.211341         5.7509

                 SPIN DOWN ORBITALS
  NO   OCC          E(Eh)            E(eV)
   0   1.0000    -196.640202     -5350.8519
   1   1.0000     -88.677234     -2413.0302
   2   1.0000     -88.677220     -2413.0298
   3   1.0000     -88.676086     -2412.9990
   4   1.0000     -88.676030     -2412.9975
   5   1.0000     -88.613672     -2411.3006
   6   1.0000     -88.613604     -2411.2988
   7   1.0000     -88.611098     -2411.2306
   8   1.0000     -88.611020     -2411.2284
   9   1.0000     -22.001226      -598.6838
  10   1.0000     -18.860713      -513.2261
  11   1.0000     -18.517585      -503.8891
  12   1.0000     -18.501438      -503.4497
  13   1.0000     -18.500787      -503.4320
  14   1.0000     -10.021218      -272.6912
  15   1.0000     -10.021159      -272.6896
  16   1.0000     -10.015640      -272.5394
  17   1.0000     -10.015609      -272.5386
  18   1.0000     -10.009119      -272.3620
  19   1.0000     -10.006497      -272.2906
  20   1.0000      -9.995659      -271.9957
  21   1.0000      -9.994967      -271.9769
  22   1.0000      -9.988866      -271.8109
  23   1.0000      -9.988135      -271.7910
  24   1.0000      -7.730737      -210.3641
  25   1.0000      -7.730727      -210.3638
  26   1.0000      -7.729922      -210.3419
  27   1.0000      -7.729870      -210.3405
  28   1.0000      -7.667771      -208.6506
  29   1.0000      -7.667758      -208.6503
  30   1.0000      -7.665766      -208.5961
  31   1.0000      -7.665683      -208.5938
  32   1.0000      -5.695992      -154.9958
  33   1.0000      -5.695991      -154.9958
  34   1.0000      -5.695172      -154.9735
  35   1.0000      -5.695111      -154.9719
  36   1.0000      -5.692081      -154.8894
  37   1.0000      -5.692080      -154.8894
  38   1.0000      -5.691309      -154.8684
  39   1.0000      -5.691261      -154.8671
  40   1.0000      -5.685509      -154.7106
  41   1.0000      -5.685497      -154.7102
  42   1.0000      -5.684610      -154.6861
  43   1.0000      -5.684561      -154.6848
  44   1.0000      -5.632743      -153.2747
  45   1.0000      -5.632733      -153.2744
  46   1.0000      -5.630548      -153.2150
  47   1.0000      -5.630473      -153.2130
  48   1.0000      -5.626455      -153.1036
  49   1.0000      -5.626428      -153.1029
  50   1.0000      -5.625693      -153.0829
  51   1.0000      -5.625675      -153.0824
  52   1.0000      -5.624434      -153.0486
  53   1.0000      -5.624361      -153.0466
  54   1.0000      -5.623763      -153.0304
  55   1.0000      -5.623674      -153.0280
  56   1.0000      -2.365428       -64.3666
  57   1.0000      -1.432132       -38.9703
  58   1.0000      -1.377963       -37.4963
  59   1.0000      -1.377390       -37.4807
  60   1.0000      -0.643760       -17.5176
  61   1.0000      -0.643291       -17.5048
  62   1.0000      -0.625856       -17.0304
  63   1.0000      -0.595688       -16.2095
  64   1.0000      -0.588971       -16.0267
  65   1.0000      -0.579094       -15.7579
  66   1.0000      -0.572923       -15.5900
  67   1.0000      -0.492077       -13.3901
  68   1.0000      -0.486853       -13.2479
  69   1.0000      -0.486582       -13.2406
  70   1.0000      -0.484609       -13.1869
  71   1.0000      -0.422673       -11.5015
  72   1.0000      -0.419726       -11.4213
  73   1.0000      -0.411674       -11.2022
  74   1.0000      -0.406421       -11.0593
  75   1.0000      -0.376079       -10.2336
  76   1.0000      -0.372424       -10.1342
  77   1.0000      -0.293596        -7.9891
  78   1.0000      -0.287944        -7.8353
  79   1.0000      -0.275981        -7.5098
  80   1.0000      -0.275669        -7.5013
  81   1.0000      -0.264093        -7.1863
  82   1.0000      -0.254097        -6.9143
  83   1.0000      -0.243238        -6.6188
  84   1.0000      -0.235335        -6.4038
  85   1.0000      -0.198063        -5.3896
  86   1.0000      -0.197970        -5.3870
  87   1.0000      -0.189957        -5.1690
  88   1.0000      -0.185663        -5.0521
  89   1.0000      -0.185389        -5.0447
  90   1.0000      -0.179337        -4.8800
  91   1.0000      -0.174373        -4.7449
  92   1.0000      -0.150502        -4.0954
  93   1.0000      -0.149610        -4.0711
  94   1.0000      -0.144678        -3.9369
  95   1.0000      -0.142261        -3.8711
  96   1.0000      -0.140943        -3.8352
  97   1.0000      -0.095825        -2.6075
  98   1.0000      -0.095565        -2.6005
  99   1.0000      -0.089923        -2.4469
 100   1.0000      -0.083231        -2.2648
 101   1.0000      -0.082235        -2.2377
 102   1.0000      -0.080417        -2.1882
 103   1.0000      -0.070794        -1.9264
 104   1.0000      -0.046060        -1.2534
 105   1.0000      -0.038414        -1.0453
 106   1.0000      -0.037539        -1.0215
 107   1.0000      -0.034651        -0.9429
 108   1.0000      -0.031374        -0.8537
 109   1.0000      -0.012222        -0.3326
 110   1.0000      -0.005783        -0.1574
 111   1.0000      -0.002549        -0.0694
 112   1.0000       0.007100         0.1932
 113   1.0000       0.011413         0.3106
 114   1.0000       0.033210         0.9037
 115   1.0000       0.058832         1.6009
 116   0.0000       0.185085         5.0364
 117   0.0000       0.188711         5.1351
 118   0.0000       0.194138         5.2828
 119   0.0000       0.195698         5.3252
 120   0.0000       0.196398         5.3443

MULLIKEN ATOMIC CHARGES AND SPIN POPULATIONS
--------------------------------------------
   0 V :    0.447542    1.198881
   1 S :   -0.255508   -0.023887
   2 S :   -0.253167   -0.024569
   3 S :   -0.255666   -0.023806
   4 S :   -0.253557   -0.024509
   5 O :   -0.506469   -0.138811
   6 C :   -0.118589    0.010005
   7 C :   -0.116213    0.010032
   8 C :   -0.114958    0.008058
   9 C :   -0.115774    0.008023
  10 S :   -0.043639    0.000020
  11 S :   -0.043501   -0.000018
  12 S :   -0.042407   -0.000296
  13 S :   -0.042492   -0.000328
  14 C :   -0.287118    0.000401
  15 C :   -0.366814    0.000215
  16 C :   -0.285810    0.000383
  17 C :   -0.366467    0.000234
  18 C :   -0.149431    0.000064
  19 H :    0.141904   -0.000124
  20 H :    0.089917    0.000032
  21 H :    0.032269    0.000044
  22 H :    0.087385    0.000014
  23 H :    0.089856    0.000034
  24 H :    0.142541   -0.000126
  25 C :   -0.050704    0.000124
  26 H :    0.106222    0.000022
  27 H :    0.149254   -0.000093
  28 H :    0.076095    0.000024
  29 H :    0.049632    0.000028
  30 H :    0.149368   -0.000090
  31 H :    0.106296    0.000020
Sum of atomic charges         :   -2.0000000

LOEWDIN ATOMIC CHARGES AND SPIN POPULATIONS
-------------------------------------------
   0 V :   -0.244159    1.152704
   1 S :    0.088833   -0.016368
   2 S :    0.087216   -0.016386
   3 S :    0.088629   -0.016299
   4 S :    0.086872   -0.016369
   5 O :   -0.350867   -0.124258
   6 C :   -0.539140    0.011045
   7 C :   -0.538543    0.011015
   8 C :   -0.563404    0.009167
   9 C :   -0.563787    0.009205
  10 S :    0.334230   -0.000851
  11 S :    0.334040   -0.000872
  12 S :    0.338709   -0.001144
  13 S :    0.338662   -0.001160
  14 C :   -0.295457    0.000196
  15 C :   -0.297336    0.000136
  16 C :   -0.295475    0.000186
  17 C :   -0.297407    0.000145
  18 C :   -0.201851   -0.000002
  19 H :    0.064595   -0.000030
  20 H :    0.052031    0.000008
  21 H :    0.041696    0.000025
  22 H :    0.057911    0.000018
  23 H :    0.052049    0.000009
  24 H :    0.064744   -0.000030
  25 C :   -0.178653   -0.000062
  26 H :    0.046169    0.000006
  27 H :    0.069265   -0.000029
  28 H :    0.052926    0.000008
  29 H :    0.052030    0.000011
  30 H :    0.069314   -0.000028
  31 H :    0.046155    0.000005

  Mayer bond orders larger than 0.100000
B(  0-V ,  1-S ) :   0.7835 B(  0-V ,  2-S ) :   0.7955 B(  0-V ,  3-S ) :   0.7855
B(  0-V ,  4-S ) :   0.7928 B(  0-V ,  5-O ) :   2.1080 B(  1-S ,  8-C ) :   1.1442
B(  2-S ,  6-C ) :   1.1251 B(  3-S ,  9-C ) :   1.1433 B(  4-S ,  7-C ) :   1.1262
B(  6-C ,  7-C ) :   1.5414 B(  6-C , 10-S ) :   0.9445 B(  7-C , 11-S ) :   0.9445
B(  8-C ,  9-C ) :   1.4957 B(  8-C , 13-S ) :   0.9581 B(  9-C , 12-S ) :   0.9587
B( 10-S , 16-C ) :   1.0150 B( 11-S , 14-C ) :   1.0150 B( 12-S , 15-C ) :   1.0073
B( 13-S , 17-C ) :   1.0076 B( 14-C , 18-C ) :   0.8808 B( 14-C , 23-H ) :   0.9724
B( 14-C , 24-H ) :   0.9592 B( 15-C , 25-C ) :   0.8758 B( 15-C , 30-H ) :   0.9818
B( 15-C , 31-H ) :   0.9675 B( 16-C , 18-C ) :   0.8810 B( 16-C , 19-H ) :   0.9593
B( 16-C , 20-H ) :   0.9723 B( 17-C , 25-C ) :   0.8756 B( 17-C , 26-H ) :   0.9675
B( 17-C , 27-H ) :   0.9817 B( 18-C , 21-H ) :   0.9319 B( 18-C , 22-H ) :   0.9886
B( 25-C , 28-H ) :   0.9610 B( 25-C , 29-H ) :   0.9624

FINAL SINGLE POINT ENERGY     -4592.712121810760

DIPOLE MOMENT
-------------
                                X             Y             Z
Electronic contribution:    -17.87230      19.38134       3.76830
Nuclear contribution   :     19.91409     -21.58558      -4.21747
                        -----------------------------------------
Total Dipole Moment    :      2.04179      -2.20425      -0.44916
                        -----------------------------------------
Magnitude (a.u.)       :      3.03799
Magnitude (Debye)      :      7.72195

Rotational constants in cm-1:     0.012763     0.002548     0.002430
Rotational constants in MHz :   382.626237    76.391421    72.859835

                             ****ORCA TERMINATED NORMALLY****
TOTAL RUN TIME: 0 days 0 hours 42 minutes 53 seconds 882 msec
