                         Program Version 5.0.4 -  RELEASE  -
|  1> ! nofrozencore ReducedPop printbasis
|  2> ! B3LYP TZVP
|  3>
|  4> %basis
|  5> newgto V "CP(PPP)" end
|  6> end
|  7>
|  8> %pal
|  9> nprocs 4
| 10> end
| 11>
| 12> % sym SymThresh 1e-2 end
| 13> * xyz -2 2
| 14> V -0.7029588736839879 0.7963004144243485 0.34051185431574926
| 15> S 0.6328510346544708 1.7192570726509027 -1.4949773877429096
| 16> S -1.835929674721653 -0.5244612640293104 -1.3827837581586009
| 17> S 1.3809276013009764 1.0388184915123626 1.6044086059573825
| 18> S -1.1089254161849968 -1.1841166919743245 1.7264361721012782
| 19> O -1.7063741645082098 1.9397890263080968 0.824606185811503
| 20> C -2.613805316866569 -1.8325929632703015 -0.4784161447090085
| 21> C -2.3108750675144445 -2.1071131769299574 0.8116880551173918
| 22> C 2.0517600341592304 2.3982723106504062 -0.689957916308287
| 23> C 2.364386150694595 2.114353466870463 0.6044470105993159
| 24> S -3.826911005669967 -2.7847743297119965 -1.423756298590171
| 25> S -3.0818391902216646 -3.4606453302576696 1.7313782403087588
| 26> S 3.8321805774874655 2.773019249995593 1.417465088235938
| 27> S 3.0729997146390597 3.463655668974653 -1.7256094856568815
| 28> C -2.4542633261135434 -4.9771068067241915 0.8795248202704734
| 29> C 5.206545175982657 1.9293488808907215 0.5193498260743366
| 30> C -3.0394473461617992 -4.449200698932826 -1.5904201001859994
| 31> C 4.6139149295798925 2.469860969105781 -1.9359515492637285
| 32> C -3.092404374299229 -5.352845928898908 -0.4103601089328442
| 33> H -1.903840652854038 -4.501704013827169 -1.6449569492031288
| 34> H -3.4693476212414427 -4.648407936047294 -2.613967342919166
| 35> H -2.7805411954551693 -6.37060314566974 -0.7013788512213223
| 36> H -4.162409220729162 -5.383156704110534 -0.1641682345025034
| 37> H -2.4161583884921107 -5.597786902498841 1.8205052336229715
| 38> H -1.4161936904772783 -4.939539038629199 0.4141144983594184
| 39> C 5.651125996675947 2.594260860002856 -0.8002443698093321
| 40> H 5.149101078562429 2.853570056442594 -2.8173638376046566
| 41> H 4.236816062299596 1.4679902082473306 -2.1676593413938714
| 42> H 5.937078627634275 3.6406423015702596 -0.6387143862882166
| 43> H 6.560723609001742 2.068156069284318 -1.1359785053440083
| 44> H 4.872535823751296 0.8873619544189505 0.4714427154862715
| 45> H 6.107008765874031 1.9786044546317616 1.149630034477218
| 46> *
| 47>
| 48> % eprnmr
| 49> gtensor true
| 50> Nuclei = all H {aiso,adip,aorb,fgrad,rho}
| 51> Nuclei = all V {aiso,adip,aorb,fgrad,rho}
| 52> end
| 53>
| 54>                          ****END OF INPUT****

CARTESIAN COORDINATES (ANGSTROEM)
---------------------------------
  V     -0.703767    0.797093    0.340870
  S      0.632043    1.720049   -1.494619
  S     -1.836738   -0.523669   -1.382426
  S      1.380120    1.039611    1.604767
  S     -1.109733   -1.183324    1.726794
  O     -1.707182    1.940581    0.824964
  C     -2.614613   -1.831801   -0.478058
  C     -2.311683   -2.106321    0.812046
  C      2.050952    2.399065   -0.689600
  C      2.363578    2.115146    0.604805
  S     -3.827719   -2.783982   -1.423398
  S     -3.082647   -3.459853    1.731736
  S      3.831373    2.773811    1.417823
  S      3.072192    3.464448   -1.725251
  C     -2.455071   -4.976315    0.879883
  C      5.205737    1.930141    0.519708
  C     -3.040255   -4.448408   -1.590062
  C      4.613107    2.470653   -1.935593
  C     -3.093212   -5.352054   -0.410002
  H     -1.904649   -4.500912   -1.644599
  H     -3.470156   -4.647616   -2.613609
  H     -2.781349   -6.369811   -0.701021
  H     -4.163217   -5.382364   -0.163810
  H     -2.416966   -5.596995    1.820863
  H     -1.417002   -4.938747    0.414473
  C      5.650318    2.595053   -0.799886
  H      5.148293    2.854362   -2.817006
  H      4.236008    1.468782   -2.167301
  H      5.936271    3.641435   -0.638356
  H      6.559916    2.068948   -1.135620
  H      4.871728    0.888154    0.471801
  H      6.106201    1.979397    1.149988

 Total Charge           Charge          ....   -2
 Multiplicity           Mult            ....    2
 Number of Electrons    NEL             ....  233
 Basis Dimension        Dim             ....  517

ORBITAL ENERGIES
----------------
                 SPIN UP ORBITALS
  NO   OCC          E(Eh)            E(eV)
   0   1.0000    -196.640156     -5350.8507
   1   1.0000     -88.681156     -2413.1369
   2   1.0000     -88.681104     -2413.1355
   3   1.0000     -88.675267     -2412.9767
   4   1.0000     -88.675261     -2412.9765
   5   1.0000     -88.612120     -2411.2584
   6   1.0000     -88.612070     -2411.2570
   7   1.0000     -88.611795     -2411.2495
   8   1.0000     -88.611761     -2411.2486
   9   1.0000     -22.015978      -599.0852
  10   1.0000     -18.857235      -513.1314
  11   1.0000     -18.522801      -504.0310
  12   1.0000     -18.517028      -503.8740
  13   1.0000     -18.516992      -503.8730
  14   1.0000     -10.024323      -272.7757
  15   1.0000     -10.024290      -272.7748
  16   1.0000     -10.015895      -272.5464
  17   1.0000     -10.015878      -272.5459
  18   1.0000     -10.008216      -272.3374
  19   1.0000     -10.002480      -272.1813
  20   1.0000      -9.991988      -271.8958
  21   1.0000      -9.991693      -271.8878
  22   1.0000      -9.991285      -271.8767
  23   1.0000      -9.990939      -271.8673
  24   1.0000      -7.734599      -210.4692
  25   1.0000      -7.734550      -210.4678
  26   1.0000      -7.728992      -210.3166
  27   1.0000      -7.728980      -210.3162
  28   1.0000      -7.666562      -208.6177
  29   1.0000      -7.666503      -208.6162
  30   1.0000      -7.666198      -208.6079
  31   1.0000      -7.666158      -208.6068
  32   1.0000      -5.699948      -155.1035
  33   1.0000      -5.699898      -155.1021
  34   1.0000      -5.695920      -154.9939
  35   1.0000      -5.695874      -154.9926
  36   1.0000      -5.694210      -154.9473
  37   1.0000      -5.694198      -154.9470
  38   1.0000      -5.690346      -154.8422
  39   1.0000      -5.690343      -154.8421
  40   1.0000      -5.689313      -154.8141
  41   1.0000      -5.689262      -154.8127
  42   1.0000      -5.683749      -154.6627
  43   1.0000      -5.683736      -154.6623
  44   1.0000      -5.631381      -153.2377
  45   1.0000      -5.631325      -153.2361
  46   1.0000      -5.631105      -153.2301
  47   1.0000      -5.631057      -153.2288
  48   1.0000      -5.625004      -153.0641
  49   1.0000      -5.624950      -153.0627
  50   1.0000      -5.624625      -153.0538
  51   1.0000      -5.624590      -153.0529
  52   1.0000      -5.624556      -153.0519
  53   1.0000      -5.624510      -153.0507
  54   1.0000      -5.624141      -153.0407
  55   1.0000      -5.624108      -153.0398
  56   1.0000      -2.409647       -65.5698
  57   1.0000      -1.451023       -39.4843
  58   1.0000      -1.439423       -39.1687
  59   1.0000      -1.438340       -39.1392
  60   1.0000      -0.654058       -17.7978
  61   1.0000      -0.641508       -17.4563
  62   1.0000      -0.618299       -16.8248
  63   1.0000      -0.598618       -16.2892
  64   1.0000      -0.592356       -16.1188
  65   1.0000      -0.577519       -15.7151
  66   1.0000      -0.575013       -15.6469
  67   1.0000      -0.494777       -13.4636
  68   1.0000      -0.490458       -13.3460
  69   1.0000      -0.487423       -13.2635
  70   1.0000      -0.485830       -13.2201
  71   1.0000      -0.423617       -11.5272
  72   1.0000      -0.420115       -11.4319
  73   1.0000      -0.411924       -11.2090
  74   1.0000      -0.405890       -11.0448
  75   1.0000      -0.374407       -10.1881
  76   1.0000      -0.371717       -10.1149
  77   1.0000      -0.311373        -8.4729
  78   1.0000      -0.287172        -7.8144
  79   1.0000      -0.284432        -7.7398
  80   1.0000      -0.274681        -7.4745
  81   1.0000      -0.273302        -7.4369
  82   1.0000      -0.257795        -7.0150
  83   1.0000      -0.248448        -6.7606
  84   1.0000      -0.222591        -6.0570
  85   1.0000      -0.201411        -5.4807
  86   1.0000      -0.201060        -5.4711
  87   1.0000      -0.192170        -5.2292
  88   1.0000      -0.188608        -5.1323
  89   1.0000      -0.180002        -4.8981
  90   1.0000      -0.178353        -4.8532
  91   1.0000      -0.161207        -4.3867
  92   1.0000      -0.152842        -4.1590
  93   1.0000      -0.150976        -4.1083
  94   1.0000      -0.142331        -3.8730
  95   1.0000      -0.141876        -3.8607
  96   1.0000      -0.121028        -3.2933
  97   1.0000      -0.097472        -2.6524
  98   1.0000      -0.096368        -2.6223
  99   1.0000      -0.089341        -2.4311
 100   1.0000      -0.083273        -2.2660
 101   1.0000      -0.081421        -2.2156
 102   1.0000      -0.080193        -2.1822
 103   1.0000      -0.069912        -1.9024
 104   1.0000      -0.050029        -1.3614
 105   1.0000      -0.039683        -1.0798
 106   1.0000      -0.038612        -1.0507
 107   1.0000      -0.035767        -0.9733
 108   1.0000      -0.032589        -0.8868
 109   1.0000      -0.013455        -0.3661
 110   1.0000      -0.004193        -0.1141
 111   1.0000      -0.003849        -0.1047
 112   1.0000       0.006259         0.1703
 113   1.0000       0.010395         0.2829
 114   1.0000       0.016194         0.4407
 115   1.0000       0.033595         0.9142
 116   1.0000       0.059799         1.6272
 117   0.0000       0.187697         5.1075
 118   0.0000       0.192494         5.2380
 119   0.0000       0.194937         5.3045
 120   0.0000       0.195884         5.3303
 121   0.0000       0.211517         5.7557

                 SPIN DOWN ORBITALS
  NO   OCC          E(Eh)            E(eV)
   0   1.0000    -196.640297     -5350.8545
   1   1.0000     -88.681170     -2413.1373
   2   1.0000     -88.681117     -2413.1359
   3   1.0000     -88.675281     -2412.9771
   4   1.0000     -88.675274     -2412.9769
   5   1.0000     -88.612279     -2411.2627
   6   1.0000     -88.612230     -2411.2614
   7   1.0000     -88.611954     -2411.2539
   8   1.0000     -88.611920     -2411.2529
   9   1.0000     -22.001315      -598.6862
  10   1.0000     -18.860804      -513.2286
  11   1.0000     -18.517675      -503.8916
  12   1.0000     -18.501543      -503.4526
  13   1.0000     -18.500861      -503.4340
  14   1.0000     -10.024320      -272.7756
  15   1.0000     -10.024287      -272.7747
  16   1.0000     -10.015891      -272.5462
  17   1.0000     -10.015874      -272.5458
  18   1.0000     -10.008216      -272.3374
  19   1.0000     -10.002480      -272.1813
  20   1.0000      -9.991733      -271.8889
  21   1.0000      -9.991439      -271.8809
  22   1.0000      -9.991032      -271.8698
  23   1.0000      -9.990686      -271.8604
  24   1.0000      -7.734613      -210.4695
  25   1.0000      -7.734564      -210.4682
  26   1.0000      -7.729006      -210.3170
  27   1.0000      -7.728994      -210.3166
  28   1.0000      -7.666710      -208.6218
  29   1.0000      -7.666651      -208.6202
  30   1.0000      -7.666347      -208.6119
  31   1.0000      -7.666306      -208.6108
  32   1.0000      -5.699964      -155.1039
  33   1.0000      -5.699915      -155.1026
  34   1.0000      -5.695941      -154.9944
  35   1.0000      -5.695894      -154.9932
  36   1.0000      -5.694227      -154.9478
  37   1.0000      -5.694215      -154.9475
  38   1.0000      -5.690366      -154.8427
  39   1.0000      -5.690363      -154.8426
  40   1.0000      -5.689330      -154.8145
  41   1.0000      -5.689279      -154.8132
  42   1.0000      -5.683765      -154.6631
  43   1.0000      -5.683753      -154.6628
  44   1.0000      -5.631552      -153.2423
  45   1.0000      -5.631496      -153.2408
  46   1.0000      -5.631276      -153.2348
  47   1.0000      -5.631227      -153.2335
  48   1.0000      -5.625393      -153.0747
  49   1.0000      -5.625340      -153.0733
  50   1.0000      -5.625018      -153.0645
  51   1.0000      -5.624982      -153.0636
  52   1.0000      -5.624692      -153.0556
  53   1.0000      -5.624645      -153.0544
  54   1.0000      -5.624274      -153.0443
  55   1.0000      -5.624241      -153.0434
  56   1.0000      -2.365483       -64.3681
  57   1.0000      -1.432213       -38.9725
  58   1.0000      -1.378032       -37.4982
  59   1.0000      -1.377379       -37.4804
  60   1.0000      -0.654028       -17.7970
  61   1.0000      -0.641453       -17.4548
  62   1.0000      -0.625938       -17.0327
  63   1.0000      -0.598407       -16.2835
  64   1.0000      -0.592163       -16.1136
  65   1.0000      -0.577515       -15.7150
  66   1.0000      -0.575007       -15.6467
  67   1.0000      -0.494797       -13.4641
  68   1.0000      -0.490489       -13.3469
  69   1.0000      -0.487427       -13.2636
  70   1.0000      -0.485850       -13.2206
  71   1.0000      -0.423864       -11.5339
  72   1.0000      -0.420415       -11.4401
  73   1.0000      -0.411936       -11.2093
  74   1.0000      -0.405992       -11.0476
  75   1.0000      -0.374368       -10.1871
  76   1.0000      -0.371735       -10.1154
  77   1.0000      -0.311349        -8.4722
  78   1.0000      -0.287159        -7.8140
  79   1.0000      -0.284413        -7.7393
  80   1.0000      -0.274662        -7.4739
  81   1.0000      -0.273206        -7.4343
  82   1.0000      -0.257769        -7.0143
  83   1.0000      -0.248265        -6.7556
  84   1.0000      -0.222522        -6.0551
  85   1.0000      -0.201342        -5.4788
  86   1.0000      -0.200926        -5.4675
  87   1.0000      -0.191629        -5.2145
  88   1.0000      -0.188415        -5.1270
  89   1.0000      -0.178341        -4.8529
  90   1.0000      -0.178084        -4.8459
  91   1.0000      -0.161082        -4.3833
  92   1.0000      -0.152651        -4.1539
  93   1.0000      -0.150316        -4.0903
  94   1.0000      -0.142065        -3.8658
  95   1.0000      -0.141660        -3.8548
  96   1.0000      -0.120963        -3.2916
  97   1.0000      -0.095877        -2.6090
  98   1.0000      -0.095866        -2.6086
  99   1.0000      -0.089521        -2.4360
 100   1.0000      -0.083212        -2.2643
 101   1.0000      -0.082268        -2.2386
 102   1.0000      -0.080747        -2.1972
 103   1.0000      -0.071139        -1.9358
 104   1.0000      -0.046129        -1.2552
 105   1.0000      -0.039613        -1.0779
 106   1.0000      -0.037855        -1.0301
 107   1.0000      -0.034964        -0.9514
 108   1.0000      -0.032515        -0.8848
 109   1.0000      -0.012550        -0.3415
 110   1.0000      -0.005523        -0.1503
 111   1.0000      -0.002726        -0.0742
 112   1.0000       0.007004         0.1906
 113   1.0000       0.011306         0.3076
 114   1.0000       0.033862         0.9214
 115   1.0000       0.059011         1.6058
 116   0.0000       0.184968         5.0332
 117   0.0000       0.188845         5.1387
 118   0.0000       0.192829         5.2471
 119   0.0000       0.195488         5.3195
 120   0.0000       0.196029         5.3342

MULLIKEN ATOMIC CHARGES AND SPIN POPULATIONS
--------------------------------------------
   0 V :    0.447468    1.198728
   1 S :   -0.252941   -0.024188
   2 S :   -0.255069   -0.023960
   3 S :   -0.253121   -0.024104
   4 S :   -0.255361   -0.023877
   5 O :   -0.506443   -0.138581
   6 C :   -0.100831    0.008796
   7 C :   -0.099180    0.008822
   8 C :   -0.121886    0.008954
   9 C :   -0.122376    0.008899
  10 S :   -0.050858   -0.000206
  11 S :   -0.050769   -0.000237
  12 S :   -0.042604   -0.000172
  13 S :   -0.042888   -0.000201
  14 C :   -0.303841    0.000200
  15 C :   -0.340601    0.000307
  16 C :   -0.303299    0.000182
  17 C :   -0.339757    0.000325
  18 C :   -0.086641    0.000268
  19 H :    0.099214   -0.000051
  20 H :    0.110878    0.000076
  21 H :    0.059866    0.000068
  22 H :    0.055852   -0.000035
  23 H :    0.110920    0.000078
  24 H :    0.099537   -0.000054
  25 C :   -0.082168    0.000082
  26 H :    0.093782    0.000024
  27 H :    0.154995   -0.000113
  28 H :    0.086005    0.000019
  29 H :    0.043071    0.000039
  30 H :    0.155210   -0.000110
  31 H :    0.093836    0.000022
Sum of atomic charges         :   -2.0000000

LOEWDIN ATOMIC CHARGES AND SPIN POPULATIONS
-------------------------------------------
   0 V :   -0.242536    1.152851
   1 S :    0.088939   -0.016338
   2 S :    0.086813   -0.016297
   3 S :    0.088740   -0.016272
   4 S :    0.086515   -0.016262
   5 O :   -0.350970   -0.124034
   6 C :   -0.548098    0.009987
   7 C :   -0.547504    0.009947
   8 C :   -0.554280    0.009979
   9 C :   -0.554687    0.009994
  10 S :    0.341133   -0.001046
  11 S :    0.340950   -0.001062
  12 S :    0.335372   -0.001031
  13 S :    0.335286   -0.001045
  14 C :   -0.306685    0.000172
  15 C :   -0.297000    0.000168
  16 C :   -0.306771    0.000163
  17 C :   -0.297050    0.000178
  18 C :   -0.197414   -0.000030
  19 H :    0.066816   -0.000028
  20 H :    0.060886    0.000032
  21 H :    0.052569    0.000014
  22 H :    0.039958    0.000013
  23 H :    0.060903    0.000033
  24 H :    0.067024   -0.000029
  25 C :   -0.183111   -0.000040
  26 H :    0.046849    0.000004
  27 H :    0.068859   -0.000026
  28 H :    0.057090    0.000010
  29 H :    0.045660    0.000019
  30 H :    0.068912   -0.000026
  31 H :    0.046834    0.000003

  Mayer bond orders larger than 0.100000
B(  0-V ,  1-S ) :   0.7879 B(  0-V ,  2-S ) :   0.7908 B(  0-V ,  3-S ) :   0.7900
B(  0-V ,  4-S ) :   0.7882 B(  0-V ,  5-O ) :   2.1080 B(  1-S ,  8-C ) :   1.1374
B(  2-S ,  6-C ) :   1.1402 B(  3-S ,  9-C ) :   1.1362 B(  4-S ,  7-C ) :   1.1410
B(  6-C ,  7-C ) :   1.5260 B(  6-C , 10-S ) :   0.9366 B(  7-C , 11-S ) :   0.9368
B(  8-C ,  9-C ) :   1.5109 B(  8-C , 13-S ) :   0.9610 B(  9-C , 12-S ) :   0.9613
B( 10-S , 16-C ) :   1.0071 B( 11-S , 14-C ) :   1.0068 B( 12-S , 15-C ) :   1.0040
B( 13-S , 17-C ) :   1.0040 B( 14-C , 18-C ) :   0.8757 B( 14-C , 23-H ) :   0.9732
B( 14-C , 24-H ) :   0.9660 B( 15-C , 25-C ) :   0.8710 B( 15-C , 30-H ) :   0.9746
B( 15-C , 31-H ) :   0.9679 B( 16-C , 18-C ) :   0.8757 B( 16-C , 19-H ) :   0.9660
B( 16-C , 20-H ) :   0.9732 B( 17-C , 25-C ) :   0.8711 B( 17-C , 26-H ) :   0.9680
B( 17-C , 27-H ) :   0.9746 B( 18-C , 21-H ) :   0.9569 B( 18-C , 22-H ) :   0.9687
B( 25-C , 28-H ) :   0.9711 B( 25-C , 29-H ) :   0.9570

FINAL SINGLE POINT ENERGY     -4592.666223016518

DIPOLE MOMENT
-------------
                                X             Y             Z
Electronic contribution:    -17.06805      18.94578       8.19810
Nuclear contribution   :     18.92820     -21.07645      -9.10512
                        -----------------------------------------
Total Dipole Moment    :      1.86015      -2.13067      -0.90702
                        -----------------------------------------
Magnitude (a.u.)       :      2.97029
Magnitude (Debye)      :      7.54987

Rotational constants in cm-1:     0.012758     0.002549     0.002431
Rotational constants in MHz :   382.487593    76.412035    72.892302

                             ****ORCA TERMINATED NORMALLY****
TOTAL RUN TIME: 0 days 0 hours 43 minutes 7 seconds 842 msec
