                         Program Version 5.0.4 -  RELEASE  -
|  1> ! nofrozencore ReducedPop printbasis
|  2> ! B3LYP TZVP
|  3>
|  4> %basis
|  5> newgto V "CP(PPP)" end
|  6> end
|  7>
|  8> %pal
|  9> nprocs 4
| 10> end
| 11>
| 12> % sym SymThresh 1e-2 end
| 13> * xyz -2 2
| 14> V 0.7704029127008445 0.7820607980970123 -0.19581885489124798
| 15> S -1.4265069508102244 1.858044928083993 -0.25878532884316485
| 16> S 0.4392994134735599 0.6484800521991881 2.2324206339091934
| 17> S 0.06860124298145527 -0.15067015274404535 -2.344821483812677
| 18> S 1.9602308044773848 -1.3403505389488228 0.14228439834199447
| 19> O 1.838130110487705 1.9287149325768242 -0.5215404819020634
| 20> C 1.4694720084090662 -0.6905388399674113 2.7720892002216826
| 21> C 2.10177211617741 -1.5202866013067864 1.9009462955599754
| 22> C -1.8232612495668807 1.812332890513379 -1.9827208246170804
| 23> C -1.199774852045614 0.9745518166381416 -2.853251828648187
| 24> S 1.6603380518997521 -0.7963439877315545 4.563205737173653
| 25> S 3.2120146576799784 -2.845144855251725 2.418695675575911
| 26> S -1.7166954852811598 0.8319435950483095 -4.576098331115643
| 27> S -3.214593298076923 2.846413193579086 -2.4846423458147533
| 28> C 2.148977337290412 -4.017182859010695 3.377419830799226
| 29> C -3.337664504896338 -0.039545151207541825 -4.374930871388147
| 30> C 0.9590496559649139 -2.44401426763538 5.027340972325855
| 31> C -4.529435970483338 1.5634971385746144 -2.712099887527312
| 32> C 1.8813878265839046 -3.6484562545364905 4.837010958573638
| 33> H 0.022964142520592593 -2.575450592185345 4.473713609127036
| 34> H 0.7092363867881408 -2.3393731803917737 6.0884208095599295
| 35> H 1.413551699296397 -4.5210824743314175 5.331785165743981
| 36> H 2.837305237215497 -3.4616291551158653 5.3483221512914065
| 37> H 2.691549106201751 -4.967376333838292 3.33441693934439
| 38> H 1.2105955110783546 -4.1416006370522185 2.82616877872936
| 39> C -4.547136957365901 0.8469794256099267 -4.065191958022604
| 40> H -5.478205115321464 2.093116955657942 -2.5748433712785275
| 41> H -4.419319459533612 0.8530719331276136 -1.8863295974660592
| 42> H -4.658791418348387 1.5943105924902419 -4.865823761705807
| 43> H -5.450636309930021 0.2080690271856476 -4.096592727878556
| 44> H -3.190547522529355 -0.7976037273626553 -3.598760922362862
| 45> H -3.5080077407739076 -0.5592212580448618 -5.323821057444556
| 46> *
| 47>
| 48> % eprnmr
| 49> gtensor true
| 50> Nuclei = all H {aiso,adip,aorb,fgrad,rho}
| 51> Nuclei = all V {aiso,adip,aorb,fgrad,rho}
| 52> end
| 53>
| 54>                          ****END OF INPUT****

CARTESIAN COORDINATES (ANGSTROEM)
---------------------------------
  V      0.771282    0.782850   -0.195934
  S     -1.425628    1.858834   -0.258900
  S      0.440178    0.649269    2.232306
  S      0.069480   -0.149881   -2.344936
  S      1.961109   -1.339561    0.142170
  O      1.839009    1.929504   -0.521655
  C      1.470351   -0.689749    2.771974
  C      2.102651   -1.519497    1.900831
  C     -1.822383    1.813122   -1.982836
  C     -1.198896    0.975341   -2.853367
  S      1.661217   -0.795555    4.563091
  S      3.212893   -2.844355    2.418581
  S     -1.715817    0.832733   -4.576213
  S     -3.213715    2.847203   -2.484757
  C      2.149856   -4.016393    3.377305
  C     -3.336786   -0.038756   -4.375046
  C      0.959928   -2.443225    5.027226
  C     -4.528557    1.564287   -2.712215
  C      1.882266   -3.647667    4.836896
  H      0.023843   -2.574661    4.473599
  H      0.710115   -2.338584    6.088306
  H      1.414430   -4.520293    5.331670
  H      2.838184   -3.460840    5.348207
  H      2.692428   -4.966587    3.334302
  H      1.211474   -4.140811    2.826054
  C     -4.546258    0.847769   -4.065307
  H     -5.477326    2.093906   -2.574958
  H     -4.418441    0.853861   -1.886444
  H     -4.657913    1.595100   -4.865939
  H     -5.449758    0.208858   -4.096708
  H     -3.189669   -0.796814   -3.598876
  H     -3.507129   -0.558432   -5.323936

 Total Charge           Charge          ....   -2
 Multiplicity           Mult            ....    2
 Number of Electrons    NEL             ....  233
 Basis Dimension        Dim             ....  517

ORBITAL ENERGIES
----------------
                 SPIN UP ORBITALS
  NO   OCC          E(Eh)            E(eV)
   0   1.0000    -196.640467     -5350.8591
   1   1.0000     -88.678562     -2413.0663
   2   1.0000     -88.678459     -2413.0635
   3   1.0000     -88.675158     -2412.9737
   4   1.0000     -88.675154     -2412.9736
   5   1.0000     -88.612268     -2411.2624
   6   1.0000     -88.612265     -2411.2623
   7   1.0000     -88.612236     -2411.2615
   8   1.0000     -88.612128     -2411.2586
   9   1.0000     -22.016180      -599.0907
  10   1.0000     -18.856842      -513.1208
  11   1.0000     -18.523059      -504.0381
  12   1.0000     -18.517209      -503.8789
  13   1.0000     -18.517175      -503.8779
  14   1.0000     -10.018153      -272.6078
  15   1.0000     -10.018141      -272.6075
  16   1.0000     -10.013990      -272.4945
  17   1.0000     -10.013968      -272.4939
  18   1.0000     -10.007322      -272.3131
  19   1.0000     -10.004960      -272.2488
  20   1.0000      -9.993078      -271.9255
  21   1.0000      -9.992354      -271.9058
  22   1.0000      -9.991379      -271.8792
  23   1.0000      -9.990663      -271.8598
  24   1.0000      -7.732012      -210.3987
  25   1.0000      -7.731928      -210.3965
  26   1.0000      -7.728834      -210.3123
  27   1.0000      -7.728823      -210.3120
  28   1.0000      -7.666622      -208.6194
  29   1.0000      -7.666553      -208.6175
  30   1.0000      -7.666540      -208.6172
  31   1.0000      -7.666524      -208.6167
  32   1.0000      -5.697300      -155.0314
  33   1.0000      -5.697228      -155.0295
  34   1.0000      -5.694056      -154.9431
  35   1.0000      -5.694041      -154.9427
  36   1.0000      -5.693309      -154.9228
  37   1.0000      -5.693218      -154.9203
  38   1.0000      -5.690264      -154.8399
  39   1.0000      -5.690262      -154.8399
  40   1.0000      -5.686803      -154.7458
  41   1.0000      -5.686707      -154.7432
  42   1.0000      -5.683533      -154.6568
  43   1.0000      -5.683527      -154.6566
  44   1.0000      -5.631463      -153.2399
  45   1.0000      -5.631461      -153.2398
  46   1.0000      -5.631447      -153.2395
  47   1.0000      -5.631346      -153.2367
  48   1.0000      -5.625139      -153.0678
  49   1.0000      -5.625017      -153.0645
  50   1.0000      -5.624942      -153.0625
  51   1.0000      -5.624937      -153.0623
  52   1.0000      -5.624563      -153.0522
  53   1.0000      -5.624546      -153.0517
  54   1.0000      -5.624538      -153.0514
  55   1.0000      -5.624457      -153.0493
  56   1.0000      -2.409670       -65.5705
  57   1.0000      -1.450745       -39.4768
  58   1.0000      -1.439428       -39.1688
  59   1.0000      -1.438410       -39.1411
  60   1.0000      -0.644017       -17.5246
  61   1.0000      -0.641906       -17.4672
  62   1.0000      -0.617667       -16.8076
  63   1.0000      -0.594175       -16.1683
  64   1.0000      -0.591975       -16.1085
  65   1.0000      -0.576245       -15.6804
  66   1.0000      -0.573756       -15.6127
  67   1.0000      -0.491090       -13.3632
  68   1.0000      -0.488774       -13.3002
  69   1.0000      -0.488227       -13.2853
  70   1.0000      -0.484452       -13.1826
  71   1.0000      -0.422906       -11.5078
  72   1.0000      -0.420012       -11.4291
  73   1.0000      -0.412430       -11.2228
  74   1.0000      -0.407001       -11.0751
  75   1.0000      -0.377194       -10.2640
  76   1.0000      -0.371884       -10.1195
  77   1.0000      -0.294446        -8.0123
  78   1.0000      -0.289925        -7.8893
  79   1.0000      -0.279369        -7.6020
  80   1.0000      -0.274415        -7.4672
  81   1.0000      -0.260576        -7.0906
  82   1.0000      -0.255186        -6.9440
  83   1.0000      -0.243170        -6.6170
  84   1.0000      -0.237452        -6.4614
  85   1.0000      -0.195224        -5.3123
  86   1.0000      -0.193158        -5.2561
  87   1.0000      -0.191881        -5.2214
  88   1.0000      -0.189588        -5.1590
  89   1.0000      -0.187049        -5.0899
  90   1.0000      -0.182411        -4.9637
  91   1.0000      -0.180296        -4.9061
  92   1.0000      -0.150818        -4.1040
  93   1.0000      -0.149635        -4.0718
  94   1.0000      -0.143576        -3.9069
  95   1.0000      -0.143139        -3.8950
  96   1.0000      -0.141278        -3.8444
  97   1.0000      -0.096652        -2.6300
  98   1.0000      -0.096374        -2.6225
  99   1.0000      -0.089312        -2.4303
 100   1.0000      -0.083510        -2.2724
 101   1.0000      -0.081698        -2.2231
 102   1.0000      -0.078995        -2.1496
 103   1.0000      -0.068815        -1.8725
 104   1.0000      -0.050144        -1.3645
 105   1.0000      -0.038545        -1.0489
 106   1.0000      -0.038441        -1.0460
 107   1.0000      -0.035081        -0.9546
 108   1.0000      -0.032051        -0.8722
 109   1.0000      -0.013531        -0.3682
 110   1.0000      -0.004731        -0.1287
 111   1.0000      -0.002514        -0.0684
 112   1.0000       0.005003         0.1361
 113   1.0000       0.012651         0.3442
 114   1.0000       0.015657         0.4261
 115   1.0000       0.033794         0.9196
 116   1.0000       0.059604         1.6219
 117   0.0000       0.187712         5.1079
 118   0.0000       0.195010         5.3065
 119   0.0000       0.195442         5.3182
 120   0.0000       0.196913         5.3583
 121   0.0000       0.210819         5.7367

                 SPIN DOWN ORBITALS
  NO   OCC          E(Eh)            E(eV)
   0   1.0000    -196.640608     -5350.8630
   1   1.0000     -88.678574     -2413.0667
   2   1.0000     -88.678471     -2413.0639
   3   1.0000     -88.675172     -2412.9741
   4   1.0000     -88.675168     -2412.9740
   5   1.0000     -88.612419     -2411.2665
   6   1.0000     -88.612415     -2411.2664
   7   1.0000     -88.612384     -2411.2656
   8   1.0000     -88.612282     -2411.2628
   9   1.0000     -22.001495      -598.6911
  10   1.0000     -18.860441      -513.2187
  11   1.0000     -18.517910      -503.8980
  12   1.0000     -18.501701      -503.4569
  13   1.0000     -18.501035      -503.4388
  14   1.0000     -10.018154      -272.6078
  15   1.0000     -10.018142      -272.6075
  16   1.0000     -10.013982      -272.4943
  17   1.0000     -10.013960      -272.4937
  18   1.0000     -10.007321      -272.3130
  19   1.0000     -10.004960      -272.2488
  20   1.0000      -9.992834      -271.9188
  21   1.0000      -9.992112      -271.8992
  22   1.0000      -9.991121      -271.8722
  23   1.0000      -9.990408      -271.8528
  24   1.0000      -7.732025      -210.3991
  25   1.0000      -7.731941      -210.3968
  26   1.0000      -7.728849      -210.3127
  27   1.0000      -7.728837      -210.3123
  28   1.0000      -7.666765      -208.6233
  29   1.0000      -7.666690      -208.6212
  30   1.0000      -7.666678      -208.6209
  31   1.0000      -7.666667      -208.6206
  32   1.0000      -5.697315      -155.0318
  33   1.0000      -5.697243      -155.0299
  34   1.0000      -5.694074      -154.9436
  35   1.0000      -5.694059      -154.9432
  36   1.0000      -5.693329      -154.9233
  37   1.0000      -5.693237      -154.9208
  38   1.0000      -5.690284      -154.8405
  39   1.0000      -5.690283      -154.8405
  40   1.0000      -5.686817      -154.7462
  41   1.0000      -5.686721      -154.7435
  42   1.0000      -5.683552      -154.6573
  43   1.0000      -5.683546      -154.6571
  44   1.0000      -5.631627      -153.2444
  45   1.0000      -5.631626      -153.2443
  46   1.0000      -5.631611      -153.2439
  47   1.0000      -5.631510      -153.2412
  48   1.0000      -5.625540      -153.0787
  49   1.0000      -5.625419      -153.0754
  50   1.0000      -5.625313      -153.0726
  51   1.0000      -5.625309      -153.0724
  52   1.0000      -5.624670      -153.0550
  53   1.0000      -5.624655      -153.0546
  54   1.0000      -5.624648      -153.0544
  55   1.0000      -5.624565      -153.0522
  56   1.0000      -2.365465       -64.3676
  57   1.0000      -1.431843       -38.9624
  58   1.0000      -1.378069       -37.4992
  59   1.0000      -1.377401       -37.4810
  60   1.0000      -0.643979       -17.5236
  61   1.0000      -0.641841       -17.4654
  62   1.0000      -0.625418       -17.0185
  63   1.0000      -0.593985       -16.1631
  64   1.0000      -0.591772       -16.1029
  65   1.0000      -0.576248       -15.6805
  66   1.0000      -0.573743       -15.6123
  67   1.0000      -0.491116       -13.3639
  68   1.0000      -0.488801       -13.3010
  69   1.0000      -0.488229       -13.2854
  70   1.0000      -0.484459       -13.1828
  71   1.0000      -0.423134       -11.5141
  72   1.0000      -0.420308       -11.4372
  73   1.0000      -0.412432       -11.2229
  74   1.0000      -0.407081       -11.0772
  75   1.0000      -0.377149       -10.2628
  76   1.0000      -0.371890       -10.1196
  77   1.0000      -0.294433        -8.0119
  78   1.0000      -0.289903        -7.8887
  79   1.0000      -0.279357        -7.6017
  80   1.0000      -0.274389        -7.4665
  81   1.0000      -0.260384        -7.0854
  82   1.0000      -0.255139        -6.9427
  83   1.0000      -0.243091        -6.6148
  84   1.0000      -0.237354        -6.4587
  85   1.0000      -0.194802        -5.3008
  86   1.0000      -0.193127        -5.2552
  87   1.0000      -0.191819        -5.2197
  88   1.0000      -0.189552        -5.1580
  89   1.0000      -0.187000        -5.0885
  90   1.0000      -0.182253        -4.9593
  91   1.0000      -0.178310        -4.8521
  92   1.0000      -0.150147        -4.0857
  93   1.0000      -0.149355        -4.0642
  94   1.0000      -0.143293        -3.8992
  95   1.0000      -0.142932        -3.8894
  96   1.0000      -0.141158        -3.8411
  97   1.0000      -0.095894        -2.6094
  98   1.0000      -0.095171        -2.5897
  99   1.0000      -0.089385        -2.4323
 100   1.0000      -0.083504        -2.2723
 101   1.0000      -0.081781        -2.2254
 102   1.0000      -0.080400        -2.1878
 103   1.0000      -0.070144        -1.9087
 104   1.0000      -0.045999        -1.2517
 105   1.0000      -0.038658        -1.0519
 106   1.0000      -0.037690        -1.0256
 107   1.0000      -0.034247        -0.9319
 108   1.0000      -0.031872        -0.8673
 109   1.0000      -0.012646        -0.3441
 110   1.0000      -0.005542        -0.1508
 111   1.0000      -0.002105        -0.0573
 112   1.0000       0.006107         0.1662
 113   1.0000       0.013473         0.3666
 114   1.0000       0.034173         0.9299
 115   1.0000       0.057804         1.5729
 116   0.0000       0.185863         5.0576
 117   0.0000       0.189049         5.1443
 118   0.0000       0.195527         5.3206
 119   0.0000       0.195690         5.3250
 120   0.0000       0.197233         5.3670

MULLIKEN ATOMIC CHARGES AND SPIN POPULATIONS
--------------------------------------------
   0 V :    0.448971    1.196913
   1 S :   -0.253013   -0.025114
   2 S :   -0.257987   -0.021536
   3 S :   -0.253392   -0.024981
   4 S :   -0.258518   -0.021386
   5 O :   -0.508015   -0.139563
   6 C :   -0.118731    0.008245
   7 C :   -0.116026    0.008034
   8 C :   -0.111983    0.009681
   9 C :   -0.111782    0.009513
  10 S :   -0.039645    0.000060
  11 S :   -0.039527    0.000017
  12 S :   -0.048992   -0.000550
  13 S :   -0.048950   -0.000564
  14 C :   -0.340060    0.000025
  15 C :   -0.336490    0.000650
  16 C :   -0.338951    0.000026
  17 C :   -0.336316    0.000673
  18 C :   -0.079295   -0.000116
  19 H :    0.141435   -0.000037
  20 H :    0.102755   -0.000048
  21 H :    0.041909    0.000082
  22 H :    0.080593    0.000093
  23 H :    0.102705   -0.000049
  24 H :    0.141985   -0.000038
  25 C :   -0.087855    0.000098
  26 H :    0.101287    0.000104
  27 H :    0.150483   -0.000161
  28 H :    0.074934   -0.000043
  29 H :    0.046420    0.000029
  30 H :    0.150746   -0.000156
  31 H :    0.101304    0.000100
Sum of atomic charges         :   -2.0000000

LOEWDIN ATOMIC CHARGES AND SPIN POPULATIONS
-------------------------------------------
   0 V :   -0.241229    1.151175
   1 S :    0.088853   -0.016518
   2 S :    0.083959   -0.014495
   3 S :    0.088625   -0.016393
   4 S :    0.083539   -0.014400
   5 O :   -0.353267   -0.125048
   6 C :   -0.553149    0.009745
   7 C :   -0.552516    0.009543
   8 C :   -0.549969    0.010034
   9 C :   -0.550395    0.009959
  10 S :    0.340475   -0.000871
  11 S :    0.340341   -0.000903
  12 S :    0.330965   -0.001173
  13 S :    0.330960   -0.001173
  14 C :   -0.295880   -0.000029
  15 C :   -0.291168    0.000310
  16 C :   -0.295970   -0.000027
  17 C :   -0.291236    0.000324
  18 C :   -0.186574   -0.000018
  19 H :    0.064346   -0.000024
  20 H :    0.048005   -0.000037
  21 H :    0.046660    0.000006
  22 H :    0.054840    0.000032
  23 H :    0.047994   -0.000037
  24 H :    0.064524   -0.000025
  25 C :   -0.183810   -0.000052
  26 H :    0.046520    0.000057
  27 H :    0.068381   -0.000026
  28 H :    0.053283   -0.000006
  29 H :    0.047930    0.000039
  30 H :    0.068462   -0.000026
  31 H :    0.046502    0.000055

  Mayer bond orders larger than 0.100000
B(  0-V ,  1-S ) :   0.7935 B(  0-V ,  2-S ) :   0.7860 B(  0-V ,  3-S ) :   0.7959
B(  0-V ,  4-S ) :   0.7834 B(  0-V ,  5-O ) :   2.1068 B(  1-S ,  8-C ) :   1.1421
B(  2-S ,  6-C ) :   1.1248 B(  3-S ,  9-C ) :   1.1404 B(  4-S ,  7-C ) :   1.1255
B(  6-C ,  7-C ) :   1.5182 B(  6-C , 10-S ) :   0.9577 B(  7-C , 11-S ) :   0.9572
B(  8-C ,  9-C ) :   1.5276 B(  8-C , 13-S ) :   0.9541 B(  9-C , 12-S ) :   0.9544
B( 10-S , 16-C ) :   1.0066 B( 11-S , 14-C ) :   1.0066 B( 12-S , 15-C ) :   1.0020
B( 13-S , 17-C ) :   1.0026 B( 14-C , 18-C ) :   0.8777 B( 14-C , 23-H ) :   0.9718
B( 14-C , 24-H ) :   0.9744 B( 15-C , 25-C ) :   0.8785 B( 15-C , 30-H ) :   0.9744
B( 15-C , 31-H ) :   0.9680 B( 16-C , 18-C ) :   0.8778 B( 16-C , 19-H ) :   0.9744
B( 16-C , 20-H ) :   0.9717 B( 17-C , 25-C ) :   0.8781 B( 17-C , 26-H ) :   0.9681
B( 17-C , 27-H ) :   0.9743 B( 18-C , 21-H ) :   0.9501 B( 18-C , 22-H ) :   0.9722
B( 25-C , 28-H ) :   0.9743 B( 25-C , 29-H ) :   0.9539

FINAL SINGLE POINT ENERGY     -4592.722696638987

DIPOLE MOMENT
-------------
                                X             Y             Z
Electronic contribution:     18.19152      18.89690      -5.05865
Nuclear contribution   :    -20.27621     -21.07670       5.64987
                        -----------------------------------------
Total Dipole Moment    :     -2.08469      -2.17981       0.59122
                        -----------------------------------------
Magnitude (a.u.)       :      3.07360
Magnitude (Debye)      :      7.81248

Rotational constants in cm-1:     0.012766     0.002548     0.002431
Rotational constants in MHz :   382.727722    76.385356    72.876586

                             ****ORCA TERMINATED NORMALLY****
TOTAL RUN TIME: 0 days 0 hours 43 minutes 8 seconds 128 msec
