                         Program Version 5.0.4 -  RELEASE  -
|  1> ! nofrozencore ReducedPop printbasis
|  2> ! B3LYP TZVP
|  3>
|  4> %basis
|  5> newgto V "CP(PPP)" end
|  6> end
|  7>
|  8> %pal
|  9> nprocs 4
| 10> end
| 11>
| 12> % sym SymThresh 1e-2 end
| 13> * xyz -2 2
| 14> V 0.34547153664618224 1.0558080067560467 -0.10024195332867986
| 15> S 1.5976272901928994 0.035738425228399456 1.7428888844869275
| 16> S 1.7248255335641922 -0.3327253494993371 -1.572306548948882
| 17> S -1.5027394617418746 1.01609894906497 1.5065175320977202
| 18> S -1.3658411421469947 0.6768756767383172 -1.8135154856101003
| 19> O 0.8428932201894784 2.566656845852409 -0.23858744075825122
| 20> C 0.8323210787558426 -0.3598857845054974 -3.0984537559877467
| 21> C -0.4566725391315017 0.059759236283653074 -3.198466549157265
| 22> C 0.5829172049651995 0.3284693832292153 3.160500660972337
| 23> C -0.7099906267287837 0.737386088739805 3.0622449954475037
| 24> S 1.7555955787303916 -1.0152148760213735 -4.503098809147342
| 25> S -1.3826127741844525 0.0003335690004138652 -4.745853149467616
| 26> S -1.760692260897744 1.0011562605781656 4.504847026726761
| 27> S 1.385074255519361 0.007260090149653615 4.7445840098572925
| 28> C -1.5633430193065898 -1.8122712660314924 -5.051580177338966
| 29> C -1.9658858249887559 -0.7081866454670285 5.171072090522471
| 30> C 0.8896014678114813 -2.605976504673581 -4.864005532436813
| 31> C 0.4829423459176069 -1.48140764116355 5.358601284437651
| 32> C -0.37511639742387554 -2.5065284005103066 -5.715659204163679
| 33> H 0.6796288494058378 -3.0836070420998207 -3.903554171405553
| 34> H 1.6323529942735948 -3.215115390987082 -5.385056208403123
| 35> H -0.6855880492207217 -3.5284473394240554 -5.9793424950353895
| 36> H -0.13534089035707905 -1.9893958869757788 -6.662457403363658
| 37> H -2.4420871244134474 -1.8997608207434231 -5.695231813384626
| 38> H -1.8037933302782774 -2.277831532184515 -4.092359698609416
| 39> C -0.833012298233842 -1.1806511558034913 6.105495827890808
| 40> H 1.2367426353224922 -1.988302284532961 6.123674103832975
| 41> H 0.3680974911039755 -2.1106312823540576 4.577559201410882
| 42> H -0.7727072434233342 -0.908716470854607 6.438152609670547
| 43> H -1.2080299218221304 -2.2553438216288724 6.574257663138013
| 44> H -2.123000520203561 -1.3239202213396393 4.384968107143244
| 45> H -2.973044285483628 -0.6612702403388101 5.801465232284375
| 46> *
| 47>
| 48> % eprnmr
| 49> gtensor true
| 50> Nuclei = all H {aiso,adip,aorb,fgrad,rho}
| 51> Nuclei = all V {aiso,adip,aorb,fgrad,rho}
| 52> end
| 53>
| 54>                          ****END OF INPUT****

CARTESIAN COORDINATES (ANGSTROEM)
---------------------------------
  V      0.345847    1.056918   -0.100429
  S      1.598003    0.036848    1.742702
  S      1.725201   -0.331615   -1.572493
  S     -1.502363    1.017209    1.506331
  S     -1.365465    0.677986   -1.813702
  O      0.843269    2.567767   -0.238774
  C      0.832697   -0.358776   -3.098641
  C     -0.456297    0.060869   -3.198653
  C      0.583293    0.329579    3.160314
  C     -0.709615    0.738496    3.062058
  S      1.755972   -1.014105   -4.503286
  S     -1.382237    0.001444   -4.746040
  S     -1.760316    1.002266    4.504660
  S      1.385450    0.008370    4.744397
  C     -1.562967   -1.811161   -5.051767
  C     -1.965510   -0.707077    5.170885
  C      0.889977   -2.604867   -4.864192
  C      0.483318   -1.480298    5.358414
  C     -0.374740   -2.505418   -5.715846
  H      0.680005   -3.082497   -3.903741
  H      1.632729   -3.214005   -5.385243
  H     -0.685212   -3.527337   -5.979529
  H     -0.134965   -1.988286   -6.662644
  H     -2.441711   -1.898651   -5.695419
  H     -1.803417   -2.276722   -4.092547
  C     -0.832636   -1.179541    6.105309
  H      1.237119   -1.987192    6.123487
  H      0.368473   -2.109521    4.577372
  H     -0.772331   -0.907607    6.437966
  H     -1.207654   -2.254234    6.574071
  H     -2.122625   -1.322810    4.384781
  H     -2.972668   -0.660160    5.801278

 Total Charge           Charge          ....   -2
 Multiplicity           Mult            ....    2
 Number of Electrons    NEL             ....  233
 Basis Dimension        Dim             ....  517

ORBITAL ENERGIES
----------------
                 SPIN UP ORBITALS
  NO   OCC          E(Eh)            E(eV)
   0   1.0000    -196.640528     -5350.8608
   1   1.0000     -88.677447     -2413.0360
   2   1.0000     -88.677406     -2413.0349
   3   1.0000     -88.676825     -2413.0191
   4   1.0000     -88.676717     -2413.0161
   5   1.0000     -88.612694     -2411.2740
   6   1.0000     -88.612588     -2411.2711
   7   1.0000     -88.612269     -2411.2624
   8   1.0000     -88.612247     -2411.2618
   9   1.0000     -22.016346      -599.0952
  10   1.0000     -18.857634      -513.1423
  11   1.0000     -18.523173      -504.0412
  12   1.0000     -18.517393      -503.8839
  13   1.0000     -18.517356      -503.8829
  14   1.0000     -10.100954      -274.8609
  15   1.0000     -10.020511      -272.6720
  16   1.0000     -10.020267      -272.6653
  17   1.0000     -10.015594      -272.5382
  18   1.0000     -10.015583      -272.5379
  19   1.0000     -10.005687      -272.2686
  20   1.0000      -9.992680      -271.9147
  21   1.0000      -9.992168      -271.9007
  22   1.0000      -9.991967      -271.8952
  23   1.0000      -9.991446      -271.8811
  24   1.0000      -7.731104      -210.3740
  25   1.0000      -7.731076      -210.3733
  26   1.0000      -7.730450      -210.3563
  27   1.0000      -7.730378      -210.3543
  28   1.0000      -7.667096      -208.6323
  29   1.0000      -7.667020      -208.6302
  30   1.0000      -7.666744      -208.6227
  31   1.0000      -7.666719      -208.6220
  32   1.0000      -5.696375      -155.0062
  33   1.0000      -5.696347      -155.0055
  34   1.0000      -5.695698      -154.9878
  35   1.0000      -5.695627      -154.9859
  36   1.0000      -5.692416      -154.8985
  37   1.0000      -5.692385      -154.8977
  38   1.0000      -5.691803      -154.8818
  39   1.0000      -5.691726      -154.8797
  40   1.0000      -5.685849      -154.7198
  41   1.0000      -5.685826      -154.7192
  42   1.0000      -5.685207      -154.7024
  43   1.0000      -5.685125      -154.7001
  44   1.0000      -5.631951      -153.2532
  45   1.0000      -5.631859      -153.2507
  46   1.0000      -5.631568      -153.2428
  47   1.0000      -5.631555      -153.2424
  48   1.0000      -5.625539      -153.0787
  49   1.0000      -5.625456      -153.0764
  50   1.0000      -5.625175      -153.0688
  51   1.0000      -5.625146      -153.0680
  52   1.0000      -5.625089      -153.0664
  53   1.0000      -5.625019      -153.0646
  54   1.0000      -5.624717      -153.0563
  55   1.0000      -5.624697      -153.0558
  56   1.0000      -2.410044       -65.5806
  57   1.0000      -1.451410       -39.4949
  58   1.0000      -1.439823       -39.1796
  59   1.0000      -1.438748       -39.1503
  60   1.0000      -0.662299       -18.0221
  61   1.0000      -0.643953       -17.5228
  62   1.0000      -0.618701       -16.8357
  63   1.0000      -0.605919       -16.4879
  64   1.0000      -0.593883       -16.1604
  65   1.0000      -0.576559       -15.6890
  66   1.0000      -0.576096       -15.6764
  67   1.0000      -0.518476       -14.1084
  68   1.0000      -0.490773       -13.3546
  69   1.0000      -0.487645       -13.2695
  70   1.0000      -0.485878       -13.2214
  71   1.0000      -0.447883       -12.1875
  72   1.0000      -0.423044       -11.5116
  73   1.0000      -0.420070       -11.4307
  74   1.0000      -0.410371       -11.1668
  75   1.0000      -0.389273       -10.5926
  76   1.0000      -0.374526       -10.1914
  77   1.0000      -0.296685        -8.0732
  78   1.0000      -0.293033        -7.9738
  79   1.0000      -0.278121        -7.5681
  80   1.0000      -0.269783        -7.3412
  81   1.0000      -0.265527        -7.2253
  82   1.0000      -0.258540        -7.0352
  83   1.0000      -0.244735        -6.6596
  84   1.0000      -0.241428        -6.5696
  85   1.0000      -0.240084        -6.5330
  86   1.0000      -0.193938        -5.2773
  87   1.0000      -0.192693        -5.2434
  88   1.0000      -0.184796        -5.0286
  89   1.0000      -0.183540        -4.9944
  90   1.0000      -0.182325        -4.9613
  91   1.0000      -0.177564        -4.8318
  92   1.0000      -0.151090        -4.1114
  93   1.0000      -0.150958        -4.1078
  94   1.0000      -0.149184        -4.0595
  95   1.0000      -0.144483        -3.9316
  96   1.0000      -0.142803        -3.8859
  97   1.0000      -0.097795        -2.6611
  98   1.0000      -0.096779        -2.6335
  99   1.0000      -0.089867        -2.4454
 100   1.0000      -0.083721        -2.2782
 101   1.0000      -0.081853        -2.2273
 102   1.0000      -0.080655        -2.1947
 103   1.0000      -0.070204        -1.9103
 104   1.0000      -0.050458        -1.3730
 105   1.0000      -0.038781        -1.0553
 106   1.0000      -0.038490        -1.0474
 107   1.0000      -0.036264        -0.9868
 108   1.0000      -0.032708        -0.8900
 109   1.0000      -0.013620        -0.3706
 110   1.0000      -0.004827        -0.1314
 111   1.0000      -0.003891        -0.1059
 112   1.0000       0.005739         0.1562
 113   1.0000       0.010137         0.2758
 114   1.0000       0.015819         0.4305
 115   1.0000       0.033109         0.9009
 116   1.0000       0.059278         1.6130
 117   0.0000       0.187582         5.1044
 118   0.0000       0.187642         5.1060
 119   0.0000       0.195183         5.3112
 120   0.0000       0.196306         5.3418
 121   0.0000       0.210871         5.7381

                 SPIN DOWN ORBITALS
  NO   OCC          E(Eh)            E(eV)
   0   1.0000    -196.640669     -5350.8646
   1   1.0000     -88.677460     -2413.0364
   2   1.0000     -88.677419     -2413.0353
   3   1.0000     -88.676838     -2413.0194
   4   1.0000     -88.676730     -2413.0165
   5   1.0000     -88.612854     -2411.2783
   6   1.0000     -88.612748     -2411.2755
   7   1.0000     -88.612429     -2411.2668
   8   1.0000     -88.612407     -2411.2662
   9   1.0000     -22.001674      -598.6960
  10   1.0000     -18.861214      -513.2397
  11   1.0000     -18.518041      -503.9015
  12   1.0000     -18.501898      -503.4622
  13   1.0000     -18.501220      -503.4438
  14   1.0000     -10.100954      -274.8609
  15   1.0000     -10.020508      -272.6719
  16   1.0000     -10.020263      -272.6652
  17   1.0000     -10.015590      -272.5381
  18   1.0000     -10.015579      -272.5378
  19   1.0000     -10.005686      -272.2686
  20   1.0000      -9.992426      -271.9077
  21   1.0000      -9.991913      -271.8938
  22   1.0000      -9.991715      -271.8884
  23   1.0000      -9.991194      -271.8742
  24   1.0000      -7.731118      -210.3744
  25   1.0000      -7.731090      -210.3736
  26   1.0000      -7.730464      -210.3566
  27   1.0000      -7.730392      -210.3546
  28   1.0000      -7.667245      -208.6363
  29   1.0000      -7.667168      -208.6343
  30   1.0000      -7.666893      -208.6268
  31   1.0000      -7.666867      -208.6261
  32   1.0000      -5.696392      -155.0067
  33   1.0000      -5.696364      -155.0060
  34   1.0000      -5.695714      -154.9883
  35   1.0000      -5.695644      -154.9863
  36   1.0000      -5.692436      -154.8991
  37   1.0000      -5.692405      -154.8982
  38   1.0000      -5.691823      -154.8824
  39   1.0000      -5.691746      -154.8803
  40   1.0000      -5.685866      -154.7203
  41   1.0000      -5.685844      -154.7197
  42   1.0000      -5.685224      -154.7028
  43   1.0000      -5.685142      -154.7006
  44   1.0000      -5.632122      -153.2578
  45   1.0000      -5.632030      -153.2553
  46   1.0000      -5.631740      -153.2474
  47   1.0000      -5.631727      -153.2471
  48   1.0000      -5.625930      -153.0893
  49   1.0000      -5.625848      -153.0871
  50   1.0000      -5.625566      -153.0794
  51   1.0000      -5.625538      -153.0787
  52   1.0000      -5.625224      -153.0701
  53   1.0000      -5.625154      -153.0682
  54   1.0000      -5.624853      -153.0600
  55   1.0000      -5.624833      -153.0595
  56   1.0000      -2.365853       -64.3781
  57   1.0000      -1.432575       -38.9823
  58   1.0000      -1.378403       -37.5083
  59   1.0000      -1.377759       -37.4907
  60   1.0000      -0.662282       -18.0216
  61   1.0000      -0.643903       -17.5215
  62   1.0000      -0.626351       -17.0439
  63   1.0000      -0.605732       -16.4828
  64   1.0000      -0.593686       -16.1550
  65   1.0000      -0.576553       -15.6888
  66   1.0000      -0.576091       -15.6762
  67   1.0000      -0.518451       -14.1078
  68   1.0000      -0.490804       -13.3554
  69   1.0000      -0.487652       -13.2697
  70   1.0000      -0.485902       -13.2221
  71   1.0000      -0.447947       -12.1893
  72   1.0000      -0.423286       -11.5182
  73   1.0000      -0.420376       -11.4390
  74   1.0000      -0.410417       -11.1680
  75   1.0000      -0.389288       -10.5931
  76   1.0000      -0.374528       -10.1914
  77   1.0000      -0.296657        -8.0725
  78   1.0000      -0.293017        -7.9734
  79   1.0000      -0.278102        -7.5675
  80   1.0000      -0.269727        -7.3396
  81   1.0000      -0.265506        -7.2248
  82   1.0000      -0.258424        -7.0321
  83   1.0000      -0.244574        -6.6552
  84   1.0000      -0.241407        -6.5690
  85   1.0000      -0.240002        -6.5308
  86   1.0000      -0.193579        -5.2676
  87   1.0000      -0.192657        -5.2425
  88   1.0000      -0.184737        -5.0269
  89   1.0000      -0.182291        -4.9604
  90   1.0000      -0.182029        -4.9533
  91   1.0000      -0.176815        -4.8114
  92   1.0000      -0.150669        -4.0999
  93   1.0000      -0.150409        -4.0928
  94   1.0000      -0.148936        -4.0527
  95   1.0000      -0.144281        -3.9261
  96   1.0000      -0.142636        -3.8813
  97   1.0000      -0.096293        -2.6203
  98   1.0000      -0.096241        -2.6189
  99   1.0000      -0.090018        -2.4495
 100   1.0000      -0.083705        -2.2777
 101   1.0000      -0.082528        -2.2457
 102   1.0000      -0.081405        -2.2151
 103   1.0000      -0.071497        -1.9455
 104   1.0000      -0.046325        -1.2606
 105   1.0000      -0.038777        -1.0552
 106   1.0000      -0.037945        -1.0325
 107   1.0000      -0.035222        -0.9584
 108   1.0000      -0.032676        -0.8892
 109   1.0000      -0.012713        -0.3459
 110   1.0000      -0.006153        -0.1674
 111   1.0000      -0.002895        -0.0788
 112   1.0000       0.006588         0.1793
 113   1.0000       0.011032         0.3002
 114   1.0000       0.033361         0.9078
 115   1.0000       0.058486         1.5915
 116   0.0000       0.184757         5.0275
 117   0.0000       0.187731         5.1084
 118   0.0000       0.188806         5.1377
 119   0.0000       0.195750         5.3266
 120   0.0000       0.196489         5.3467

MULLIKEN ATOMIC CHARGES AND SPIN POPULATIONS
--------------------------------------------
   0 V :    0.447664    1.199349
   1 S :   -0.253119   -0.024171
   2 S :   -0.253733   -0.024136
   3 S :   -0.253284   -0.024099
   4 S :   -0.254070   -0.024062
   5 O :   -0.506462   -0.138843
   6 C :   -0.117041    0.008845
   7 C :   -0.115489    0.008864
   8 C :   -0.120128    0.008927
   9 C :   -0.120814    0.008851
  10 S :   -0.044415   -0.000163
  11 S :   -0.044360   -0.000198
  12 S :   -0.047074   -0.000187
  13 S :   -0.047410   -0.000216
  14 C :   -0.338862    0.000286
  15 C :   -0.339565    0.000369
  16 C :   -0.338079    0.000270
  17 C :   -0.339368    0.000389
  18 C :   -0.083524    0.000140
  19 H :    0.146512   -0.000102
  20 H :    0.102521    0.000021
  21 H :    0.045620    0.000038
  22 H :    0.076209    0.000017
  23 H :    0.102489    0.000022
  24 H :    0.146910   -0.000104
  25 C :   -0.101549   -0.000664
  26 H :    0.070027    0.000024
  27 H :    0.170716   -0.000106
  28 H :    0.164933    0.000643
  29 H :    0.004278    0.000076
  30 H :    0.170833   -0.000103
  31 H :    0.069633    0.000022
Sum of atomic charges         :   -2.0000000

LOEWDIN ATOMIC CHARGES AND SPIN POPULATIONS
-------------------------------------------
   0 V :   -0.242667    1.153307
   1 S :    0.088311   -0.016351
   2 S :    0.088115   -0.016358
   3 S :    0.088093   -0.016288
   4 S :    0.087841   -0.016327
   5 O :   -0.350824   -0.124287
   6 C :   -0.553331    0.009991
   7 C :   -0.552790    0.009952
   8 C :   -0.553450    0.009948
   9 C :   -0.553820    0.009968
  10 S :    0.336976   -0.001024
  11 S :    0.336825   -0.001044
  12 S :    0.339360   -0.001045
  13 S :    0.339276   -0.001058
  14 C :   -0.293842    0.000165
  15 C :   -0.242155    0.000177
  16 C :   -0.293926    0.000157
  17 C :   -0.241876    0.000187
  18 C :   -0.185447   -0.000036
  19 H :    0.066046   -0.000027
  20 H :    0.047100    0.000004
  21 H :    0.046543    0.000017
  22 H :    0.054562    0.000012
  23 H :    0.047099    0.000006
  24 H :    0.066196   -0.000027
  25 C :    0.096716   -0.000037
  26 H :    0.056493    0.000008
  27 H :    0.048028   -0.000013
  28 H :   -0.354387   -0.000002
  29 H :    0.080022    0.000032
  30 H :    0.048398   -0.000013
  31 H :    0.056515    0.000007

  Mayer bond orders larger than 0.100000
B(  0-V ,  1-S ) :   0.7876 B(  0-V ,  2-S ) :   0.7911 B(  0-V ,  3-S ) :   0.7896
B(  0-V ,  4-S ) :   0.7885 B(  0-V ,  5-O ) :   2.1082 B(  1-S ,  8-C ) :   1.1392
B(  2-S ,  6-C ) :   1.1366 B(  3-S ,  9-C ) :   1.1382 B(  4-S ,  7-C ) :   1.1378
B(  6-C ,  7-C ) :   1.5175 B(  6-C , 10-S ) :   0.9541 B(  7-C , 11-S ) :   0.9540
B(  8-C ,  9-C ) :   1.5130 B(  8-C , 13-S ) :   0.9538 B(  9-C , 12-S ) :   0.9543
B( 10-S , 16-C ) :   1.0052 B( 11-S , 14-C ) :   1.0050 B( 12-S , 15-C ) :   0.9942
B( 13-S , 17-C ) :   0.9946 B( 14-C , 18-C ) :   0.8784 B( 14-C , 23-H ) :   0.9702
B( 14-C , 24-H ) :   0.9752 B( 15-C , 25-C ) :   0.8976 B( 15-C , 30-H ) :   0.9804
B( 15-C , 31-H ) :   0.9677 B( 16-C , 18-C ) :   0.8783 B( 16-C , 19-H ) :   0.9751
B( 16-C , 20-H ) :   0.9701 B( 17-C , 25-C ) :   0.8971 B( 17-C , 26-H ) :   0.9680
B( 17-C , 27-H ) :   0.9804 B( 18-C , 21-H ) :   0.9525 B( 18-C , 22-H ) :   0.9730
B( 25-C , 28-H ) :   0.8962 B( 25-C , 29-H ) :   1.0304

FINAL SINGLE POINT ENERGY     -4591.289959408528

DIPOLE MOMENT
-------------
                                X             Y             Z
Electronic contribution:      8.38259      25.68632      -2.33622
Nuclear contribution   :     -9.31365     -28.55849       2.50985
                        -----------------------------------------
Total Dipole Moment    :     -0.93106      -2.87217       0.17363
                        -----------------------------------------
Magnitude (a.u.)       :      3.02430
Magnitude (Debye)      :      7.68716

Rotational constants in cm-1:     0.012771     0.002549     0.002431
Rotational constants in MHz :   382.868916    76.409076    72.888774

                             ****ORCA TERMINATED NORMALLY****
TOTAL RUN TIME: 0 days 0 hours 43 minutes 22 seconds 888 msec
