                         Program Version 5.0.4 -  RELEASE  -
|  1> ! nofrozencore ReducedPop printbasis
|  2> ! B3LYP TZVP
|  3>
|  4> %basis
|  5> newgto V "CP(PPP)" end
|  6> end
|  7>
|  8> %pal
|  9> nprocs 4
| 10> end
| 11>
| 12> % sym SymThresh 1e-2 end
| 13> * xyz -2 2
| 14> V 0.12136833837736052 0.6368858035533514 -0.9076940794368552
| 15> S -2.0876347990209454 1.1095905711742144 0.04223836903879677
| 16> S 1.0146864692828128 1.874295906114274 1.0075519088243803
| 17> S -0.934780964241721 -1.463309206390588 -1.5953147995382813
| 18> S 2.1727908712708777 -0.6802648943031091 -0.65467453894643
| 19> O 0.2891809497359856 1.5497089450424502 -2.2064792868083325
| 20> C 2.7100108190677314 1.3759691522314794 1.0883054297196293
| 21> C 3.1916600079611497 0.3114509046027819 0.39722439646821744
| 22> C -3.1455160400881597 -0.0813631395727721 -0.7293710725247925
| 23> C -2.667205244101593 -1.1495320916271787 -1.4093435874683657
| 24> S 3.74053752748385 2.3768308045040456 2.1821765410089204
| 25> S 4.913810785124904 -0.22123381904336661 0.5024563125075215
| 26> S -3.7436297213815717 -2.385942151773147 -2.1739089957359434
| 27> S -4.914653725858491 0.22814448092952563 -0.5110711174510388
| 28> C 5.064082508219386 -0.8184319308171548 2.2443654512940534
| 29> C -4.548842189876327 -3.210453826023141 -0.7288002903645953
| 30> C 4.1486210733729445 1.2139587109323322 3.5583007823199013
| 31> C -5.466680307222453 -1.1633370973572887 0.572608421587164
| 32> C 5.278122065554891 0.23747064248136082 3.308034785584647
| 33> H 3.284945996477403 0.5840606230905968 3.811207677063414
| 34> H 4.3081066596058735 1.9113117631772218 4.39049194965267
| 35> H 5.526229258672341 -0.26444493116616835 4.257049049094133
| 36> H 6.154163334322616 0.8241466535260563 3.0115113855257016
| 37> H 5.86894441779774 -1.5584752883147936 2.150602244749562
| 38> H 4.155806288575668 -1.3508774174660065 2.5578446071832235
| 39> C -5.669692968761316 -2.4909661923230533 -0.06656980598656498
| 40> H -6.242564902846377 -0.550400877222007 1.1149204543005942
| 41> H -4.725711846985972 -1.5823223249834302 1.3286645196472537
| 42> H -6.352353202373452 -2.2683888329948014 -0.897884562735226
| 43> H -6.191504880662757 -3.1687605049228846 0.6306237510878552
| 44> H -3.958326522389373 -3.2905903443276565 0.2412094216493975
| 45> H -4.595053663276968 -4.2248814718333225 -1.219064766527365
| 46> *
| 47>
| 48> % eprnmr
| 49> gtensor true
| 50> Nuclei = all H {aiso,adip,aorb,fgrad,rho}
| 51> Nuclei = all V {aiso,adip,aorb,fgrad,rho}
| 52> end
| 53>
| 54>                          ****END OF INPUT****

CARTESIAN COORDINATES (ANGSTROEM)
---------------------------------
  V      0.121570    0.637586   -0.908631
  S     -2.087433    1.110290    0.041301
  S      1.014889    1.874996    1.006615
  S     -0.934579   -1.462609   -1.596252
  S      2.172993   -0.679565   -0.655612
  O      0.289383    1.550409   -2.207416
  C      2.710213    1.376669    1.087368
  C      3.191862    0.312151    0.396287
  C     -3.145314   -0.080663   -0.730308
  C     -2.667003   -1.148832   -1.410281
  S      3.740740    2.377531    2.181240
  S      4.914013   -0.220534    0.501519
  S     -3.743428   -2.385242   -2.174846
  S     -4.914452    0.228844   -0.512008
  C      5.064285   -0.817732    2.243428
  C     -4.548640   -3.209754   -0.729737
  C      4.148823    1.214659    3.557364
  C     -5.466478   -1.162637    0.571671
  C      5.278324    0.238170    3.307098
  H      3.285148    0.584760    3.810271
  H      4.308309    1.912012    4.389555
  H      5.526431   -0.263745    4.256112
  H      6.154365    0.824847    3.010574
  H      5.869147   -1.557775    2.149665
  H      4.156008   -1.350178    2.556908
  C     -5.669491   -2.490266   -0.067507
  H     -6.242363   -0.549701    1.113983
  H     -4.725510   -1.581622    1.327728
  H     -6.352151   -2.267689   -0.898822
  H     -6.191303   -3.168061    0.629687
  H     -3.958124   -3.289890    0.240272
  H     -4.594852   -4.224182   -1.220002

 Total Charge           Charge          ....   -2
 Multiplicity           Mult            ....    2
 Number of Electrons    NEL             ....  233
 Basis Dimension        Dim             ....  517

ORBITAL ENERGIES
----------------
                 SPIN UP ORBITALS
  NO   OCC          E(Eh)            E(eV)
   0   1.0000    -196.639647     -5350.8368
   1   1.0000     -88.680804     -2413.1274
   2   1.0000     -88.680785     -2413.1268
   3   1.0000     -88.677463     -2413.0365
   4   1.0000     -88.677458     -2413.0363
   5   1.0000     -88.611362     -2411.2377
   6   1.0000     -88.611313     -2411.2364
   7   1.0000     -88.611307     -2411.2362
   8   1.0000     -88.611285     -2411.2356
   9   1.0000     -22.015501      -599.0722
  10   1.0000     -18.856740      -513.1180
  11   1.0000     -18.522321      -504.0180
  12   1.0000     -18.516550      -503.8609
  13   1.0000     -18.516516      -503.8600
  14   1.0000     -10.023972      -272.7661
  15   1.0000     -10.023938      -272.7652
  16   1.0000     -10.016227      -272.5554
  17   1.0000     -10.016192      -272.5544
  18   1.0000     -10.002124      -272.1716
  19   1.0000     -10.002029      -272.1690
  20   1.0000      -9.991336      -271.8781
  21   1.0000      -9.991246      -271.8756
  22   1.0000      -9.990591      -271.8578
  23   1.0000      -9.990514      -271.8557
  24   1.0000      -7.734255      -210.4598
  25   1.0000      -7.734237      -210.4593
  26   1.0000      -7.731052      -210.3726
  27   1.0000      -7.731014      -210.3716
  28   1.0000      -7.665761      -208.5959
  29   1.0000      -7.665750      -208.5957
  30   1.0000      -7.665713      -208.5946
  31   1.0000      -7.665697      -208.5942
  32   1.0000      -5.699606      -155.0942
  33   1.0000      -5.699576      -155.0933
  34   1.0000      -5.696333      -155.0051
  35   1.0000      -5.696291      -155.0040
  36   1.0000      -5.695576      -154.9845
  37   1.0000      -5.695568      -154.9843
  38   1.0000      -5.692392      -154.8979
  39   1.0000      -5.692364      -154.8971
  40   1.0000      -5.688964      -154.8046
  41   1.0000      -5.688951      -154.8042
  42   1.0000      -5.685786      -154.7181
  43   1.0000      -5.685763      -154.7175
  44   1.0000      -5.630658      -153.2180
  45   1.0000      -5.630614      -153.2168
  46   1.0000      -5.630599      -153.2164
  47   1.0000      -5.630568      -153.2156
  48   1.0000      -5.624184      -153.0418
  49   1.0000      -5.624182      -153.0418
  50   1.0000      -5.624148      -153.0408
  51   1.0000      -5.624137      -153.0405
  52   1.0000      -5.623715      -153.0291
  53   1.0000      -5.623708      -153.0289
  54   1.0000      -5.623691      -153.0284
  55   1.0000      -5.623644      -153.0271
  56   1.0000      -2.409164       -65.5567
  57   1.0000      -1.450561       -39.4718
  58   1.0000      -1.438930       -39.1553
  59   1.0000      -1.437846       -39.1258
  60   1.0000      -0.653720       -17.7886
  61   1.0000      -0.646110       -17.5815
  62   1.0000      -0.617860       -16.8128
  63   1.0000      -0.598172       -16.2771
  64   1.0000      -0.594593       -16.1797
  65   1.0000      -0.577323       -15.7098
  66   1.0000      -0.576034       -15.6747
  67   1.0000      -0.494466       -13.4551
  68   1.0000      -0.490564       -13.3489
  69   1.0000      -0.487446       -13.2641
  70   1.0000      -0.486285       -13.2325
  71   1.0000      -0.423622       -11.5273
  72   1.0000      -0.420661       -11.4468
  73   1.0000      -0.411249       -11.1907
  74   1.0000      -0.405285       -11.0284
  75   1.0000      -0.375170       -10.2089
  76   1.0000      -0.371665       -10.1135
  77   1.0000      -0.310977        -8.4621
  78   1.0000      -0.299737        -8.1563
  79   1.0000      -0.286829        -7.8050
  80   1.0000      -0.280252        -7.6261
  81   1.0000      -0.273105        -7.4316
  82   1.0000      -0.260235        -7.0814
  83   1.0000      -0.230115        -6.2617
  84   1.0000      -0.222230        -6.0472
  85   1.0000      -0.204442        -5.5632
  86   1.0000      -0.200181        -5.4472
  87   1.0000      -0.193213        -5.2576
  88   1.0000      -0.188190        -5.1209
  89   1.0000      -0.179376        -4.8811
  90   1.0000      -0.172591        -4.6964
  91   1.0000      -0.160901        -4.3783
  92   1.0000      -0.153152        -4.1675
  93   1.0000      -0.150809        -4.1037
  94   1.0000      -0.147654        -4.0179
  95   1.0000      -0.140604        -3.8260
  96   1.0000      -0.120602        -3.2817
  97   1.0000      -0.097539        -2.6542
  98   1.0000      -0.097244        -2.6462
  99   1.0000      -0.089224        -2.4279
 100   1.0000      -0.083285        -2.2663
 101   1.0000      -0.081857        -2.2274
 102   1.0000      -0.079922        -2.1748
 103   1.0000      -0.069706        -1.8968
 104   1.0000      -0.049650        -1.3511
 105   1.0000      -0.039374        -1.0714
 106   1.0000      -0.038424        -1.0456
 107   1.0000      -0.036783        -1.0009
 108   1.0000      -0.032929        -0.8960
 109   1.0000      -0.013315        -0.3623
 110   1.0000      -0.004167        -0.1134
 111   1.0000      -0.003567        -0.0971
 112   1.0000       0.006963         0.1895
 113   1.0000       0.010322         0.2809
 114   1.0000       0.016652         0.4531
 115   1.0000       0.034036         0.9262
 116   1.0000       0.060314         1.6412
 117   0.0000       0.188342         5.1250
 118   0.0000       0.192747         5.2449
 119   0.0000       0.195398         5.3171
 120   0.0000       0.196674         5.3518
 121   0.0000       0.212136         5.7725

                 SPIN DOWN ORBITALS
  NO   OCC          E(Eh)            E(eV)
   0   1.0000    -196.639788     -5350.8407
   1   1.0000     -88.680818     -2413.1277
   2   1.0000     -88.680798     -2413.1272
   3   1.0000     -88.677477     -2413.0368
   4   1.0000     -88.677471     -2413.0367
   5   1.0000     -88.611522     -2411.2421
   6   1.0000     -88.611472     -2411.2407
   7   1.0000     -88.611466     -2411.2406
   8   1.0000     -88.611444     -2411.2400
   9   1.0000     -22.000837      -598.6732
  10   1.0000     -18.860320      -513.2154
  11   1.0000     -18.517193      -503.8784
  12   1.0000     -18.501069      -503.4397
  13   1.0000     -18.500382      -503.4210
  14   1.0000     -10.023968      -272.7660
  15   1.0000     -10.023934      -272.7651
  16   1.0000     -10.016224      -272.5553
  17   1.0000     -10.016189      -272.5544
  18   1.0000     -10.002124      -272.1716
  19   1.0000     -10.002028      -272.1690
  20   1.0000      -9.991081      -271.8711
  21   1.0000      -9.990990      -271.8687
  22   1.0000      -9.990337      -271.8509
  23   1.0000      -9.990260      -271.8488
  24   1.0000      -7.734269      -210.4602
  25   1.0000      -7.734251      -210.4597
  26   1.0000      -7.731066      -210.3730
  27   1.0000      -7.731028      -210.3720
  28   1.0000      -7.665909      -208.6000
  29   1.0000      -7.665898      -208.5997
  30   1.0000      -7.665860      -208.5987
  31   1.0000      -7.665845      -208.5983
  32   1.0000      -5.699622      -155.0946
  33   1.0000      -5.699592      -155.0938
  34   1.0000      -5.696350      -155.0056
  35   1.0000      -5.696308      -155.0044
  36   1.0000      -5.695597      -154.9851
  37   1.0000      -5.695588      -154.9848
  38   1.0000      -5.692412      -154.8984
  39   1.0000      -5.692384      -154.8977
  40   1.0000      -5.688981      -154.8050
  41   1.0000      -5.688968      -154.8047
  42   1.0000      -5.685802      -154.7185
  43   1.0000      -5.685779      -154.7179
  44   1.0000      -5.630829      -153.2227
  45   1.0000      -5.630786      -153.2215
  46   1.0000      -5.630770      -153.2210
  47   1.0000      -5.630740      -153.2202
  48   1.0000      -5.624578      -153.0525
  49   1.0000      -5.624573      -153.0524
  50   1.0000      -5.624539      -153.0515
  51   1.0000      -5.624531      -153.0513
  52   1.0000      -5.623849      -153.0327
  53   1.0000      -5.623839      -153.0324
  54   1.0000      -5.623824      -153.0320
  55   1.0000      -5.623776      -153.0307
  56   1.0000      -2.364998       -64.3549
  57   1.0000      -1.431742       -38.9597
  58   1.0000      -1.377541       -37.4848
  59   1.0000      -1.376887       -37.4670
  60   1.0000      -0.653689       -17.7878
  61   1.0000      -0.646066       -17.5804
  62   1.0000      -0.625520       -17.0213
  63   1.0000      -0.597961       -16.2713
  64   1.0000      -0.594387       -16.1741
  65   1.0000      -0.577319       -15.7096
  66   1.0000      -0.576029       -15.6745
  67   1.0000      -0.494485       -13.4556
  68   1.0000      -0.490594       -13.3497
  69   1.0000      -0.487445       -13.2641
  70   1.0000      -0.486301       -13.2329
  71   1.0000      -0.423865       -11.5339
  72   1.0000      -0.420971       -11.4552
  73   1.0000      -0.411259       -11.1909
  74   1.0000      -0.405389       -11.0312
  75   1.0000      -0.375140       -10.2081
  76   1.0000      -0.371676       -10.1138
  77   1.0000      -0.310953        -8.4615
  78   1.0000      -0.299719        -8.1558
  79   1.0000      -0.286816        -7.8047
  80   1.0000      -0.280235        -7.6256
  81   1.0000      -0.273003        -7.4288
  82   1.0000      -0.260132        -7.0786
  83   1.0000      -0.230055        -6.2601
  84   1.0000      -0.222161        -6.0453
  85   1.0000      -0.204345        -5.5605
  86   1.0000      -0.200071        -5.4442
  87   1.0000      -0.192599        -5.2409
  88   1.0000      -0.187999        -5.1157
  89   1.0000      -0.177489        -4.8297
  90   1.0000      -0.172519        -4.6945
  91   1.0000      -0.160776        -4.3749
  92   1.0000      -0.152952        -4.1620
  93   1.0000      -0.150162        -4.0861
  94   1.0000      -0.147473        -4.0130
  95   1.0000      -0.140440        -3.8216
  96   1.0000      -0.120538        -3.2800
  97   1.0000      -0.097025        -2.6402
  98   1.0000      -0.095603        -2.6015
  99   1.0000      -0.089414        -2.4331
 100   1.0000      -0.083201        -2.2640
 101   1.0000      -0.081814        -2.2263
 102   1.0000      -0.081342        -2.2134
 103   1.0000      -0.070930        -1.9301
 104   1.0000      -0.045881        -1.2485
 105   1.0000      -0.039496        -1.0747
 106   1.0000      -0.037686        -1.0255
 107   1.0000      -0.035745        -0.9727
 108   1.0000      -0.032900        -0.8953
 109   1.0000      -0.012418        -0.3379
 110   1.0000      -0.004935        -0.1343
 111   1.0000      -0.002893        -0.0787
 112   1.0000       0.007650         0.2082
 113   1.0000       0.011237         0.3058
 114   1.0000       0.034314         0.9337
 115   1.0000       0.059527         1.6198
 116   0.0000       0.185356         5.0438
 117   0.0000       0.189465         5.1556
 118   0.0000       0.193089         5.2542
 119   0.0000       0.195949         5.3320
 120   0.0000       0.196926         5.3586

MULLIKEN ATOMIC CHARGES AND SPIN POPULATIONS
--------------------------------------------
   0 V :    0.447808    1.198768
   1 S :   -0.255297   -0.024082
   2 S :   -0.254532   -0.024040
   3 S :   -0.255484   -0.024015
   4 S :   -0.254901   -0.023966
   5 O :   -0.506921   -0.138721
   6 C :   -0.111358    0.008861
   7 C :   -0.109629    0.008876
   8 C :   -0.099397    0.008918
   9 C :   -0.100188    0.008852
  10 S :   -0.047360   -0.000174
  11 S :   -0.047250   -0.000209
  12 S :   -0.050839   -0.000234
  13 S :   -0.051055   -0.000264
  14 C :   -0.331441    0.000272
  15 C :   -0.303515    0.000210
  16 C :   -0.330561    0.000254
  17 C :   -0.302613    0.000233
  18 C :   -0.085388    0.000185
  19 H :    0.135027   -0.000088
  20 H :    0.106373    0.000031
  21 H :    0.047865    0.000043
  22 H :    0.070792    0.000003
  23 H :    0.106353    0.000032
  24 H :    0.135654   -0.000091
  25 C :   -0.087804    0.000260
  26 H :    0.110481    0.000089
  27 H :    0.099395   -0.000059
  28 H :    0.055693   -0.000040
  29 H :    0.059749    0.000066
  30 H :    0.099733   -0.000054
  31 H :    0.110611    0.000086
Sum of atomic charges         :   -2.0000000

LOEWDIN ATOMIC CHARGES AND SPIN POPULATIONS
-------------------------------------------
   0 V :   -0.242297    1.152908
   1 S :    0.086716   -0.016359
   2 S :    0.087399   -0.016284
   3 S :    0.086533   -0.016299
   4 S :    0.087081   -0.016252
   5 O :   -0.351285   -0.124148
   6 C :   -0.551729    0.010019
   7 C :   -0.551123    0.009977
   8 C :   -0.547522    0.009980
   9 C :   -0.547868    0.010000
  10 S :    0.338075   -0.001026
  11 S :    0.337917   -0.001045
  12 S :    0.341036   -0.001060
  13 S :    0.341054   -0.001073
  14 C :   -0.294611    0.000167
  15 C :   -0.306846    0.000176
  16 C :   -0.294702    0.000159
  17 C :   -0.306894    0.000186
  18 C :   -0.187810   -0.000034
  19 H :    0.065013   -0.000027
  20 H :    0.049474    0.000011
  21 H :    0.048251    0.000017
  22 H :    0.049316    0.000013
  23 H :    0.049477    0.000013
  24 H :    0.065190   -0.000028
  25 C :   -0.197602   -0.000033
  26 H :    0.060706    0.000038
  27 H :    0.066933   -0.000030
  28 H :    0.039905    0.000011
  29 H :    0.052474    0.000014
  30 H :    0.067032   -0.000029
  31 H :    0.060706    0.000037

  Mayer bond orders larger than 0.100000
B(  0-V ,  1-S ) :   0.7881 B(  0-V ,  2-S ) :   0.7906 B(  0-V ,  3-S ) :   0.7902
B(  0-V ,  4-S ) :   0.7880 B(  0-V ,  5-O ) :   2.1074 B(  1-S ,  8-C ) :   1.1413
B(  2-S ,  6-C ) :   1.1380 B(  3-S ,  9-C ) :   1.1403 B(  4-S ,  7-C ) :   1.1389
B(  6-C ,  7-C ) :   1.5221 B(  6-C , 10-S ) :   0.9473 B(  7-C , 11-S ) :   0.9473
B(  8-C ,  9-C ) :   1.5263 B(  8-C , 13-S ) :   0.9361 B(  9-C , 12-S ) :   0.9366
B( 10-S , 16-C ) :   1.0068 B( 11-S , 14-C ) :   1.0068 B( 12-S , 15-C ) :   1.0071
B( 13-S , 17-C ) :   1.0074 B( 14-C , 18-C ) :   0.8820 B( 14-C , 23-H ) :   0.9718
B( 14-C , 24-H ) :   0.9742 B( 15-C , 25-C ) :   0.8759 B( 15-C , 30-H ) :   0.9659
B( 15-C , 31-H ) :   0.9732 B( 16-C , 18-C ) :   0.8824 B( 16-C , 19-H ) :   0.9742
B( 16-C , 20-H ) :   0.9717 B( 17-C , 25-C ) :   0.8758 B( 17-C , 26-H ) :   0.9733
B( 17-C , 27-H ) :   0.9658 B( 18-C , 21-H ) :   0.9515 B( 18-C , 22-H ) :   0.9738
B( 25-C , 28-H ) :   0.9688 B( 25-C , 29-H ) :   0.9568

FINAL SINGLE POINT ENERGY     -4592.666175321349

DIPOLE MOMENT
-------------
                                X             Y             Z
Electronic contribution:      2.84288      15.27521     -21.84612
Nuclear contribution   :     -3.15648     -16.95752      24.24843
                        -----------------------------------------
Total Dipole Moment    :     -0.31360      -1.68231       2.40231
                        -----------------------------------------
Magnitude (a.u.)       :      2.94951
Magnitude (Debye)      :      7.49706

Rotational constants in cm-1:     0.012748     0.002549     0.002432
Rotational constants in MHz :   382.179107    76.428320    72.904789

                             ****ORCA TERMINATED NORMALLY****
TOTAL RUN TIME: 0 days 0 hours 43 minutes 30 seconds 318 msec
