                         Program Version 5.0.4 -  RELEASE  -
|  1> ! nofrozencore ReducedPop printbasis
|  2> ! B3LYP TZVP
|  3>
|  4> %basis
|  5> newgto V "CP(PPP)" end
|  6> end
|  7>
|  8> %pal
|  9> nprocs 8
| 10> end
| 11>
| 12> % sym SymThresh 1e-2 end
| 13> * xyz -2 2
| 14> V 0.06680503136210662 -0.8372586924288444 -0.733933708493519
| 15> S -1.6522566770085063 -1.4256390145921125 0.910456093718219
| 16> S -1.5555497460872447 0.7868844753427968 -1.5871432730167745
| 17> S 1.6014573871880147 -1.3271135404961445 1.1110109299848157
| 18> S 1.6978386315215561 0.863347590725251 -1.4087364763077284
| 19> O 0.15902736286362762 -2.039088283652565 -1.7810069162194395
| 20> C -0.6058484928231479 1.9135561434929216 -2.5350698029047285
| 21> C 0.8056699696171088 1.9475300059613552 -2.4563725123715114
| 22> C -0.7263414347457784 -2.254076489247424 2.1901615447647806
| 23> C 0.5768751277878401 -2.2148523868349113 2.2706690245538783
| 24> S -1.5229294024913258 3.037627977772181 -3.583666260624879
| 25> S 1.7773491703333335 3.1214088692261583 -3.3957388015971848
| 26> S 1.5231588810037018 -3.0267019898489336 3.5940772453291907
| 27> S -1.7774898516756457 -3.12723809954859 3.3901015353618567
| 28> C 1.3469544577971393 4.744830054367941 -2.6269947060603553
| 29> C 1.022559245968221 -2.066569908934443 5.090049323100081
| 30> C -1.2680469181218332 4.679682670957009 -2.7777380291549076
| 31> C -1.5242456368324924 -2.1451894552408097 4.933060389763919
| 32> C 0.04785915294317969 5.392453216182255 -3.1426949298425737
| 33> H -1.1666543157567602 4.468166988487946 -1.6977278748779747
| 34> H -2.045738324252825 5.30082843229196 -3.2565606149657964
| 35> H 0.004100961525070614 6.4683254248377064 -2.8488342881420254
| 36> H 0.1048216840824978 5.607726349348339 -4.224494688842851
| 37> H 2.1424064743983564 5.407118837687182 -3.0123268452021295
| 38> H 1.1315725159944918 4.522957095072871 -1.5659296221998178
| 39> C -0.28577575960222057 -2.454714594241844 5.752396507709189
| 40> H -2.476782036296141 -2.205079132322099 5.503788359423659
| 41> H -1.724797911051082 -1.0805510065217923 4.697287114372249
| 42> H -0.2605334230770771 -3.5434406043275364 5.888593680057374
| 43> H -0.3608439854084513 -1.8037145147056617 6.640743630619592
| 44> H 1.182787788564 -0.9910600498793993 4.874641691770476
| 45> H 1.8992113029434017 -2.0694088068638585 5.7738996148633674
| 46> *
| 47>
| 48> % eprnmr
| 49> gtensor true
| 50> Nuclei = all H {aiso,adip,aorb,fgrad,rho}
| 51> Nuclei = all V {aiso,adip,aorb,fgrad,rho}
| 52> end
| 53>
| 54>                          ****END OF INPUT****

CARTESIAN COORDINATES (ANGSTROEM)
---------------------------------
  V      0.066872   -0.838094   -0.734774
  S     -1.652190   -1.426474    0.909615
  S     -1.555483    0.786049   -1.587984
  S      1.601524   -1.327949    1.110170
  S      1.697906    0.862512   -1.409577
  O      0.159094   -2.039924   -1.781848
  C     -0.605782    1.912721   -2.535910
  C      0.805737    1.946695   -2.457213
  C     -0.726275   -2.254912    2.189321
  C      0.576942   -2.215688    2.269828
  S     -1.522863    3.036793   -3.584507
  S      1.777416    3.120574   -3.396579
  S      1.523226   -3.027537    3.593237
  S     -1.777423   -3.128073    3.389261
  C      1.347021    4.743995   -2.627835
  C      1.022626   -2.067405    5.089209
  C     -1.267980    4.678847   -2.778579
  C     -1.524179   -2.146025    4.932220
  C      0.047926    5.391618   -3.143536
  H     -1.166587    4.467332   -1.698568
  H     -2.045671    5.299993   -3.257401
  H      0.004168    6.467490   -2.849675
  H      0.104889    5.606891   -4.225335
  H      2.142473    5.406284   -3.013167
  H      1.131639    4.522122   -1.566770
  C     -0.285709   -2.455550    5.751556
  H     -2.476715   -2.205914    5.502948
  H     -1.724731   -1.081386    4.696447
  H     -0.260467   -3.544276    5.887753
  H     -0.360777   -1.804550    6.639903
  H      1.182855   -0.991895    4.873801
  H      1.899278   -2.070244    5.773059

 Total Charge           Charge          ....   -2
 Multiplicity           Mult            ....    2
 Number of Electrons    NEL             ....  233
 Basis Dimension        Dim             ....  517

ORBITAL ENERGIES
----------------
                 SPIN UP ORBITALS
  NO   OCC          E(Eh)            E(eV)
   0   1.0000    -196.640385     -5350.8569
   1   1.0000     -88.678880     -2413.0750
   2   1.0000     -88.678867     -2413.0746
   3   1.0000     -88.674948     -2412.9680
   4   1.0000     -88.674866     -2412.9658
   5   1.0000     -88.613006     -2411.2825
   6   1.0000     -88.612947     -2411.2809
   7   1.0000     -88.611569     -2411.2434
   8   1.0000     -88.611454     -2411.2402
   9   1.0000     -22.016182      -599.0908
  10   1.0000     -18.857408      -513.1361
  11   1.0000     -18.523004      -504.0366
  12   1.0000     -18.517234      -503.8796
  13   1.0000     -18.517196      -503.8785
  14   1.0000     -10.019367      -272.6409
  15   1.0000     -10.019342      -272.6402
  16   1.0000     -10.018406      -272.6147
  17   1.0000     -10.018370      -272.6137
  18   1.0000     -10.011894      -272.4375
  19   1.0000     -10.001779      -272.1622
  20   1.0000      -9.994614      -271.9673
  21   1.0000      -9.994116      -271.9537
  22   1.0000      -9.988853      -271.8105
  23   1.0000      -9.987785      -271.7814
  24   1.0000      -7.732240      -210.4049
  25   1.0000      -7.732232      -210.4047
  26   1.0000      -7.728833      -210.3122
  27   1.0000      -7.728758      -210.3102
  28   1.0000      -7.667648      -208.6473
  29   1.0000      -7.667621      -208.6466
  30   1.0000      -7.665820      -208.5976
  31   1.0000      -7.665724      -208.5949
  32   1.0000      -5.697491      -155.0366
  33   1.0000      -5.697490      -155.0366
  34   1.0000      -5.694051      -154.9430
  35   1.0000      -5.693985      -154.9412
  36   1.0000      -5.693643      -154.9319
  37   1.0000      -5.693641      -154.9319
  38   1.0000      -5.690128      -154.8363
  39   1.0000      -5.690052      -154.8342
  40   1.0000      -5.686970      -154.7503
  41   1.0000      -5.686962      -154.7501
  42   1.0000      -5.683630      -154.6594
  43   1.0000      -5.683551      -154.6573
  44   1.0000      -5.632296      -153.2626
  45   1.0000      -5.632267      -153.2618
  46   1.0000      -5.630835      -153.2228
  47   1.0000      -5.630742      -153.2203
  48   1.0000      -5.626080      -153.0934
  49   1.0000      -5.626019      -153.0918
  50   1.0000      -5.625801      -153.0858
  51   1.0000      -5.625789      -153.0855
  52   1.0000      -5.624276      -153.0443
  53   1.0000      -5.624165      -153.0413
  54   1.0000      -5.623622      -153.0265
  55   1.0000      -5.623525      -153.0239
  56   1.0000      -2.409864       -65.5757
  57   1.0000      -1.451221       -39.4897
  58   1.0000      -1.439649       -39.1749
  59   1.0000      -1.438564       -39.1453
  60   1.0000      -0.647017       -17.6062
  61   1.0000      -0.641689       -17.4613
  62   1.0000      -0.618484       -16.8298
  63   1.0000      -0.599855       -16.3229
  64   1.0000      -0.588786       -16.0217
  65   1.0000      -0.576328       -15.6827
  66   1.0000      -0.575399       -15.6574
  67   1.0000      -0.493194       -13.4205
  68   1.0000      -0.489172       -13.3111
  69   1.0000      -0.489100       -13.3091
  70   1.0000      -0.485124       -13.2009
  71   1.0000      -0.423108       -11.5134
  72   1.0000      -0.420261       -11.4359
  73   1.0000      -0.416767       -11.3408
  74   1.0000      -0.404159       -10.9977
  75   1.0000      -0.385540       -10.4911
  76   1.0000      -0.367238        -9.9930
  77   1.0000      -0.304181        -8.2772
  78   1.0000      -0.295664        -8.0454
  79   1.0000      -0.275398        -7.4940
  80   1.0000      -0.266673        -7.2565
  81   1.0000      -0.259333        -7.0568
  82   1.0000      -0.256134        -6.9698
  83   1.0000      -0.246189        -6.6991
  84   1.0000      -0.241008        -6.5582
  85   1.0000      -0.203605        -5.5404
  86   1.0000      -0.193991        -5.2788
  87   1.0000      -0.187105        -5.0914
  88   1.0000      -0.185918        -5.0591
  89   1.0000      -0.179593        -4.8870
  90   1.0000      -0.176786        -4.8106
  91   1.0000      -0.172726        -4.7001
  92   1.0000      -0.150929        -4.1070
  93   1.0000      -0.148042        -4.0284
  94   1.0000      -0.141079        -3.8389
  95   1.0000      -0.140761        -3.8303
  96   1.0000      -0.136481        -3.7138
  97   1.0000      -0.097818        -2.6618
  98   1.0000      -0.097715        -2.6590
  99   1.0000      -0.090487        -2.4623
 100   1.0000      -0.083202        -2.2640
 101   1.0000      -0.080716        -2.1964
 102   1.0000      -0.078905        -2.1471
 103   1.0000      -0.069534        -1.8921
 104   1.0000      -0.051169        -1.3924
 105   1.0000      -0.038504        -1.0478
 106   1.0000      -0.038392        -1.0447
 107   1.0000      -0.034652        -0.9429
 108   1.0000      -0.032375        -0.8810
 109   1.0000      -0.013374        -0.3639
 110   1.0000      -0.005183        -0.1410
 111   1.0000      -0.003288        -0.0895
 112   1.0000       0.006435         0.1751
 113   1.0000       0.010514         0.2861
 114   1.0000       0.016042         0.4365
 115   1.0000       0.032798         0.8925
 116   1.0000       0.060116         1.6358
 117   0.0000       0.186129         5.0648
 118   0.0000       0.192416         5.2359
 119   0.0000       0.192686         5.2433
 120   0.0000       0.195651         5.3239
 121   0.0000       0.210953         5.7403

                 SPIN DOWN ORBITALS
  NO   OCC          E(Eh)            E(eV)
   0   1.0000    -196.640526     -5350.8607
   1   1.0000     -88.678893     -2413.0754
   2   1.0000     -88.678880     -2413.0750
   3   1.0000     -88.674961     -2412.9684
   4   1.0000     -88.674879     -2412.9661
   5   1.0000     -88.613162     -2411.2867
   6   1.0000     -88.613103     -2411.2851
   7   1.0000     -88.611731     -2411.2478
   8   1.0000     -88.611616     -2411.2447
   9   1.0000     -22.001516      -598.6917
  10   1.0000     -18.860980      -513.2334
  11   1.0000     -18.517876      -503.8970
  12   1.0000     -18.501744      -503.4580
  13   1.0000     -18.501066      -503.4396
  14   1.0000     -10.019364      -272.6408
  15   1.0000     -10.019339      -272.6401
  16   1.0000     -10.018402      -272.6146
  17   1.0000     -10.018366      -272.6136
  18   1.0000     -10.011894      -272.4375
  19   1.0000     -10.001779      -272.1622
  20   1.0000      -9.994367      -271.9606
  21   1.0000      -9.993871      -271.9471
  22   1.0000      -9.988590      -271.8034
  23   1.0000      -9.987525      -271.7744
  24   1.0000      -7.732253      -210.4053
  25   1.0000      -7.732246      -210.4051
  26   1.0000      -7.728847      -210.3126
  27   1.0000      -7.728772      -210.3106
  28   1.0000      -7.667794      -208.6513
  29   1.0000      -7.667767      -208.6505
  30   1.0000      -7.665971      -208.6017
  31   1.0000      -7.665874      -208.5990
  32   1.0000      -5.697508      -155.0371
  33   1.0000      -5.697507      -155.0370
  34   1.0000      -5.694068      -154.9435
  35   1.0000      -5.694002      -154.9417
  36   1.0000      -5.693663      -154.9324
  37   1.0000      -5.693661      -154.9324
  38   1.0000      -5.690148      -154.8368
  39   1.0000      -5.690072      -154.8347
  40   1.0000      -5.686986      -154.7508
  41   1.0000      -5.686978      -154.7505
  42   1.0000      -5.683647      -154.6599
  43   1.0000      -5.683568      -154.6577
  44   1.0000      -5.632464      -153.2671
  45   1.0000      -5.632434      -153.2663
  46   1.0000      -5.631010      -153.2276
  47   1.0000      -5.630916      -153.2250
  48   1.0000      -5.626448      -153.1034
  49   1.0000      -5.626388      -153.1018
  50   1.0000      -5.625949      -153.0898
  51   1.0000      -5.625935      -153.0895
  52   1.0000      -5.624680      -153.0553
  53   1.0000      -5.624570      -153.0523
  54   1.0000      -5.623752      -153.0301
  55   1.0000      -5.623656      -153.0275
  56   1.0000      -2.365694       -64.3738
  57   1.0000      -1.432404       -38.9777
  58   1.0000      -1.378246       -37.5040
  59   1.0000      -1.377602       -37.4864
  60   1.0000      -0.646957       -17.6046
  61   1.0000      -0.641648       -17.4601
  62   1.0000      -0.626132       -17.0379
  63   1.0000      -0.599632       -16.3168
  64   1.0000      -0.588613       -16.0170
  65   1.0000      -0.576320       -15.6825
  66   1.0000      -0.575397       -15.6573
  67   1.0000      -0.493205       -13.4208
  68   1.0000      -0.489219       -13.3123
  69   1.0000      -0.489111       -13.3094
  70   1.0000      -0.485139       -13.2013
  71   1.0000      -0.423351       -11.5200
  72   1.0000      -0.420570       -11.4443
  73   1.0000      -0.416812       -11.3420
  74   1.0000      -0.404215       -10.9993
  75   1.0000      -0.385537       -10.4910
  76   1.0000      -0.367228        -9.9928
  77   1.0000      -0.304161        -8.2766
  78   1.0000      -0.295638        -8.0447
  79   1.0000      -0.275389        -7.4937
  80   1.0000      -0.266617        -7.2550
  81   1.0000      -0.259307        -7.0561
  82   1.0000      -0.255971        -6.9653
  83   1.0000      -0.246056        -6.6955
  84   1.0000      -0.240945        -6.5565
  85   1.0000      -0.203452        -5.5362
  86   1.0000      -0.193954        -5.2777
  87   1.0000      -0.187089        -5.0909
  88   1.0000      -0.184383        -5.0173
  89   1.0000      -0.179507        -4.8846
  90   1.0000      -0.175812        -4.7841
  91   1.0000      -0.172658        -4.6983
  92   1.0000      -0.150248        -4.0884
  93   1.0000      -0.147742        -4.0203
  94   1.0000      -0.140851        -3.8328
  95   1.0000      -0.140572        -3.8251
  96   1.0000      -0.136343        -3.7101
  97   1.0000      -0.097345        -2.6489
  98   1.0000      -0.096207        -2.6179
  99   1.0000      -0.090520        -2.4632
 100   1.0000      -0.083336        -2.2677
 101   1.0000      -0.082380        -2.2417
 102   1.0000      -0.078653        -2.1403
 103   1.0000      -0.070761        -1.9255
 104   1.0000      -0.047727        -1.2987
 105   1.0000      -0.037582        -1.0227
 106   1.0000      -0.037556        -1.0219
 107   1.0000      -0.034067        -0.9270
 108   1.0000      -0.032343        -0.8801
 109   1.0000      -0.012462        -0.3391
 110   1.0000      -0.006428        -0.1749
 111   1.0000      -0.002228        -0.0606
 112   1.0000       0.007141         0.1943
 113   1.0000       0.011404         0.3103
 114   1.0000       0.033017         0.8984
 115   1.0000       0.059364         1.6154
 116   0.0000       0.184887         5.0310
 117   0.0000       0.187122         5.0918
 118   0.0000       0.192444         5.2367
 119   0.0000       0.193053         5.2533
 120   0.0000       0.196369         5.3435

MULLIKEN ATOMIC CHARGES AND SPIN POPULATIONS
--------------------------------------------
   0 V :    0.446971    1.198966
   1 S :   -0.264336   -0.024866
   2 S :   -0.242518   -0.023331
   3 S :   -0.264418   -0.024765
   4 S :   -0.242828   -0.023236
   5 O :   -0.506387   -0.138681
   6 C :   -0.133119    0.008309
   7 C :   -0.131656    0.008327
   8 C :   -0.099025    0.009474
   9 C :   -0.099366    0.009387
  10 S :   -0.036175   -0.000161
  11 S :   -0.035926   -0.000195
  12 S :   -0.042938   -0.000204
  13 S :   -0.042970   -0.000232
  14 C :   -0.330021    0.000325
  15 C :   -0.350852    0.000258
  16 C :   -0.329071    0.000308
  17 C :   -0.350807    0.000273
  18 C :   -0.105677    0.000058
  19 H :    0.151571   -0.000108
  20 H :    0.098915    0.000026
  21 H :    0.045976    0.000093
  22 H :    0.064261    0.000043
  23 H :    0.098889    0.000028
  24 H :    0.151943   -0.000111
  25 C :   -0.066618    0.000175
  26 H :    0.100140    0.000034
  27 H :    0.141934   -0.000116
  28 H :    0.092014   -0.000008
  29 H :    0.039629    0.000014
  30 H :    0.142258   -0.000114
  31 H :    0.100207    0.000032
Sum of atomic charges         :   -2.0000000

LOEWDIN ATOMIC CHARGES AND SPIN POPULATIONS
-------------------------------------------
   0 V :   -0.243008    1.152990
   1 S :    0.076438   -0.016911
   2 S :    0.101258   -0.015721
   3 S :    0.076309   -0.016840
   4 S :    0.101079   -0.015686
   5 O :   -0.350856   -0.124125
   6 C :   -0.571801    0.009571
   7 C :   -0.571156    0.009538
   8 C :   -0.535508    0.010391
   9 C :   -0.535853    0.010409
  10 S :    0.340972   -0.001033
  11 S :    0.340851   -0.001052
  12 S :    0.334150   -0.001036
  13 S :    0.334134   -0.001047
  14 C :   -0.294240    0.000174
  15 C :   -0.311117    0.000157
  16 C :   -0.294363    0.000165
  17 C :   -0.311343    0.000166
  18 C :   -0.203056   -0.000042
  19 H :    0.073755   -0.000024
  20 H :    0.053564    0.000001
  21 H :    0.042254    0.000025
  22 H :    0.044482    0.000014
  23 H :    0.053546    0.000002
  24 H :    0.073877   -0.000025
  25 C :   -0.177618   -0.000034
  26 H :    0.050162    0.000013
  27 H :    0.066615   -0.000039
  28 H :    0.063797    0.000009
  29 H :    0.055885    0.000015
  30 H :    0.066669   -0.000038
  31 H :    0.050125    0.000012

  Mayer bond orders larger than 0.100000
B(  0-V ,  1-S ) :   0.7911 B(  0-V ,  2-S ) :   0.7877 B(  0-V ,  3-S ) :   0.7931
B(  0-V ,  4-S ) :   0.7851 B(  0-V ,  5-O ) :   2.1081 B(  1-S ,  8-C ) :   1.1235
B(  2-S ,  6-C ) :   1.1502 B(  3-S ,  9-C ) :   1.1227 B(  4-S ,  7-C ) :   1.1514
B(  6-C ,  7-C ) :   1.4549 B(  6-C , 10-S ) :   0.9748 B(  7-C , 11-S ) :   0.9748
B(  8-C ,  9-C ) :   1.5623 B(  8-C , 13-S ) :   0.9343 B(  9-C , 12-S ) :   0.9347
B( 10-S , 16-C ) :   1.0108 B( 11-S , 14-C ) :   1.0111 B( 12-S , 15-C ) :   1.0147
B( 13-S , 17-C ) :   1.0153 B( 14-C , 18-C ) :   0.8806 B( 14-C , 23-H ) :   0.9659
B( 14-C , 24-H ) :   0.9737 B( 15-C , 25-C ) :   0.8937 B( 15-C , 30-H ) :   0.9642
B( 15-C , 31-H ) :   0.9657 B( 16-C , 18-C ) :   0.8810 B( 16-C , 19-H ) :   0.9736
B( 16-C , 20-H ) :   0.9658 B( 17-C , 25-C ) :   0.8938 B( 17-C , 26-H ) :   0.9658
B( 17-C , 27-H ) :   0.9641 B( 18-C , 21-H ) :   0.9491 B( 18-C , 22-H ) :   0.9591
B( 25-C , 28-H ) :   0.9823 B( 25-C , 29-H ) :   0.9472

FINAL SINGLE POINT ENERGY     -4592.678140698672

DIPOLE MOMENT
-------------
                                X             Y             Z
Electronic contribution:      1.59638     -20.53734     -17.02082
Nuclear contribution   :     -1.78210      22.70769      19.12582
                        -----------------------------------------
Total Dipole Moment    :     -0.18572       2.17035       2.10500
                        -----------------------------------------
Magnitude (a.u.)       :      3.02918
Magnitude (Debye)      :      7.69957

Rotational constants in cm-1:     0.012770     0.002548     0.002431
Rotational constants in MHz :   382.826391    76.397311    72.880822

                             ****ORCA TERMINATED NORMALLY****
TOTAL RUN TIME: 0 days 0 hours 27 minutes 23 seconds 23 msec
