                         Program Version 5.0.4 -  RELEASE  -
|  1> ! nofrozencore ReducedPop printbasis
|  2> ! B3LYP TZVP
|  3>
|  4> %basis
|  5> newgto V "CP(PPP)" end
|  6> end
|  7>
|  8> %pal
|  9> nprocs 4
| 10> end
| 11>
| 12> % sym SymThresh 1e-2 end
| 13> * xyz -2 2
| 14> V -0.7780916093913993 -0.7309593786131058 0.3233329674024049
| 15> S -0.7649746579981265 1.1140065820414 1.9248140253076624
| 16> S -1.8305152246550107 0.9039707670304941 -1.1535018777967008
| 17> S 1.3255382216032292 -1.3412620439672163 1.4380441899875103
| 18> S 0.18884137718338173 -1.5809139660187517 -1.7719956547625462
| 19> O -1.9116863064617535 -1.7509493400949105 0.796654642080756
| 20> C -1.64625688752463 0.16466361781593394 -3.098274625510219
| 21> C -0.6652624738737849 -0.8941877052823287 -2.73373249791055
| 22> C 0.6228475462544374 0.6098976632619051 3.409169681086803
| 23> C 1.2140827121886812 -0.5195985873906573 2.632515629173397
| 24> S -2.5661691615016538 0.9570139639178622 -4.087590527897103
| 25> S -0.49859781447598345 -1.5543490778639637 -4.685077697754993
| 26> S 2.5878165331421776 -0.9420564716173992 4.122440580911964
| 27> S 0.47665479477872136 1.5493137250308096 4.649657828438305
| 28> C 0.3451964573434044 -0.19753106641619436 -5.589553818842613
| 29> C 3.7443302207456464 0.48322935611778567 4.13701002760893
| 30> C -1.2637792512554054 1.7740895126901925 -5.1340667096428545
| 31> C 2.1057737625167543 2.4405017347619453 4.5514504786643535
| 32> C -0.5648891180099085 0.8857040462202207 -6.162536625180991
| 33> H -0.584287552061932 2.265246723065661 -4.433352577730736
| 34> H -1.830057352917377 2.541520452017388 -5.675087821447644
| 35> H 0.04952471281005808 1.5419179194774824 -6.800420317009554
| 36> H -1.3359902636537409 0.4473926686740758 -6.806619419384787
| 37> H 0.9379580090879266 -0.664910904531975 -6.38336173101488
| 38> H 1.0536556936695411 0.2840722695102829 -4.9091948816846775
| 39> C 3.334610933324241 1.660776543343489 5.016924360556025
| 40> H 1.962178773747466 3.287121332633381 5.23345916633802
| 41> H 2.1759349568814 2.819383140370444 3.528892651015249
| 42> H 3.1529498968304255 1.333373318434304 6.047217814686478
| 43> H 4.179019610170618 2.3684228315509417 5.050626419718116
| 44> H 3.854019473251548 0.8511133171578267 3.112524032294605
| 45> H 4.723485494681789 0.09604613656542535 4.439314899660488
| 46> *
| 47>
| 48> % eprnmr
| 49> gtensor true
| 50> Nuclei = all H {aiso,adip,aorb,fgrad,rho}
| 51> Nuclei = all V {aiso,adip,aorb,fgrad,rho}
| 52> end
| 53>
| 54>                          ****END OF INPUT****

CARTESIAN COORDINATES (ANGSTROEM)
---------------------------------
  V     -0.778955   -0.731728    0.323603
  S     -0.765838    1.113238    1.925084
  S     -1.831379    0.903202   -1.153232
  S      1.324675   -1.342030    1.438314
  S      0.187978   -1.581682   -1.771726
  O     -1.912550   -1.751718    0.796924
  C     -1.647121    0.163895   -3.098005
  C     -0.666126   -0.894956   -2.733463
  C      0.621984    0.609129    3.409439
  C      1.213219   -0.520367    2.632785
  S     -2.567033    0.956246   -4.087321
  S     -0.499461   -1.555117   -4.684808
  S      2.586953   -0.942825    4.122710
  S      0.475791    1.548545    4.649927
  C      0.344333   -0.198299   -5.589284
  C      3.743467    0.482461    4.137280
  C     -1.264643    1.773321   -5.133797
  C      2.104910    2.439733    4.551720
  C     -0.565753    0.884936   -6.162267
  H     -0.585151    2.264478   -4.433083
  H     -1.830921    2.540752   -5.674818
  H      0.048661    1.541150   -6.800151
  H     -1.336854    0.446624   -6.806350
  H      0.937094   -0.665679   -6.383092
  H      1.052792    0.283304   -4.908925
  C      3.333747    1.660008    5.017194
  H      1.961315    3.286353    5.233729
  H      2.175071    2.818615    3.529162
  H      3.152086    1.332605    6.047487
  H      4.178156    2.367654    5.050896
  H      3.853156    0.850345    3.112794
  H      4.722622    0.095278    4.439584

 Total Charge           Charge          ....   -2
 Multiplicity           Mult            ....    2
 Number of Electrons    NEL             ....  233
 Basis Dimension        Dim             ....  517

ORBITAL ENERGIES
----------------
                 SPIN UP ORBITALS
  NO   OCC          E(Eh)            E(eV)
   0   1.0000    -196.647433     -5351.0487
   1   1.0000     -88.686729     -2413.2886
   2   1.0000     -88.686685     -2413.2874
   3   1.0000     -88.650129     -2412.2927
   4   1.0000     -88.649539     -2412.2766
   5   1.0000     -88.648834     -2412.2574
   6   1.0000     -88.648216     -2412.2406
   7   1.0000     -88.591414     -2410.6949
   8   1.0000     -88.590798     -2410.6782
   9   1.0000     -22.021672      -599.2401
  10   1.0000     -18.866194      -513.3752
  11   1.0000     -18.528717      -504.1920
  12   1.0000     -18.522726      -504.0290
  13   1.0000     -18.522652      -504.0270
  14   1.0000     -10.025752      -272.8146
  15   1.0000     -10.025356      -272.8038
  16   1.0000     -10.008309      -272.3399
  17   1.0000     -10.008048      -272.3328
  18   1.0000     -10.007978      -272.3309
  19   1.0000     -10.007749      -272.3247
  20   1.0000     -10.000155      -272.1181
  21   1.0000      -9.999924      -272.1118
  22   1.0000      -9.992737      -271.9162
  23   1.0000      -9.992585      -271.9121
  24   1.0000      -7.743251      -210.7046
  25   1.0000      -7.743147      -210.7018
  26   1.0000      -7.715149      -209.9399
  27   1.0000      -7.714384      -209.9191
  28   1.0000      -7.702910      -209.6068
  29   1.0000      -7.702331      -209.5911
  30   1.0000      -7.643477      -207.9896
  31   1.0000      -7.642854      -207.9726
  32   1.0000      -5.708183      -155.3276
  33   1.0000      -5.708090      -155.3250
  34   1.0000      -5.704029      -155.2145
  35   1.0000      -5.703936      -155.2120
  36   1.0000      -5.698299      -155.0586
  37   1.0000      -5.698189      -155.0556
  38   1.0000      -5.678477      -154.5192
  39   1.0000      -5.677717      -154.4985
  40   1.0000      -5.673475      -154.3831
  41   1.0000      -5.672702      -154.3621
  42   1.0000      -5.672441      -154.3550
  43   1.0000      -5.671695      -154.3347
  44   1.0000      -5.667705      -154.2261
  45   1.0000      -5.667118      -154.2101
  46   1.0000      -5.664058      -154.1269
  47   1.0000      -5.663464      -154.1107
  48   1.0000      -5.658170      -153.9666
  49   1.0000      -5.657602      -153.9512
  50   1.0000      -5.608121      -152.6047
  51   1.0000      -5.607483      -152.5874
  52   1.0000      -5.602975      -152.4647
  53   1.0000      -5.602374      -152.4484
  54   1.0000      -5.601024      -152.4116
  55   1.0000      -5.600404      -152.3947
  56   1.0000      -2.416578       -65.7584
  57   1.0000      -1.458800       -39.6960
  58   1.0000      -1.445986       -39.3473
  59   1.0000      -1.445880       -39.3444
  60   1.0000      -0.651590       -17.7307
  61   1.0000      -0.650945       -17.7131
  62   1.0000      -0.628658       -17.1066
  63   1.0000      -0.625594       -17.0233
  64   1.0000      -0.624560       -16.9951
  65   1.0000      -0.593512       -16.1503
  66   1.0000      -0.593211       -16.1421
  67   1.0000      -0.533146       -14.5076
  68   1.0000      -0.532818       -14.4987
  69   1.0000      -0.451182       -12.2773
  70   1.0000      -0.450236       -12.2515
  71   1.0000      -0.431083       -11.7304
  72   1.0000      -0.429390       -11.6843
  73   1.0000      -0.393494       -10.7075
  74   1.0000      -0.388233       -10.5644
  75   1.0000      -0.358781        -9.7629
  76   1.0000      -0.350830        -9.5466
  77   1.0000      -0.291463        -7.9311
  78   1.0000      -0.289970        -7.8905
  79   1.0000      -0.274029        -7.4567
  80   1.0000      -0.273656        -7.4466
  81   1.0000      -0.262245        -7.1360
  82   1.0000      -0.252360        -6.8671
  83   1.0000      -0.241899        -6.5824
  84   1.0000      -0.238937        -6.5018
  85   1.0000      -0.221687        -6.0324
  86   1.0000      -0.204964        -5.5773
  87   1.0000      -0.189403        -5.1539
  88   1.0000      -0.186641        -5.0788
  89   1.0000      -0.184414        -5.0182
  90   1.0000      -0.183711        -4.9990
  91   1.0000      -0.182469        -4.9652
  92   1.0000      -0.180332        -4.9071
  93   1.0000      -0.156354        -4.2546
  94   1.0000      -0.155026        -4.2185
  95   1.0000      -0.136616        -3.7175
  96   1.0000      -0.133860        -3.6425
  97   1.0000      -0.130512        -3.5514
  98   1.0000      -0.117774        -3.2048
  99   1.0000      -0.109207        -2.9717
 100   1.0000      -0.105040        -2.8583
 101   1.0000      -0.100951        -2.7470
 102   1.0000      -0.085163        -2.3174
 103   1.0000      -0.080014        -2.1773
 104   1.0000      -0.048050        -1.3075
 105   1.0000      -0.040395        -1.0992
 106   1.0000      -0.019479        -0.5300
 107   1.0000      -0.016221        -0.4414
 108   1.0000      -0.009661        -0.2629
 109   1.0000      -0.000749        -0.0204
 110   1.0000       0.002131         0.0580
 111   1.0000       0.005686         0.1547
 112   1.0000       0.010435         0.2840
 113   1.0000       0.020225         0.5503
 114   1.0000       0.025570         0.6958
 115   1.0000       0.038411         1.0452
 116   1.0000       0.065866         1.7923
 117   0.0000       0.169690         4.6175
 118   0.0000       0.182600         4.9688
 119   0.0000       0.188900         5.1402
 120   0.0000       0.191833         5.2201
 121   0.0000       0.201166         5.4740

                 SPIN DOWN ORBITALS
  NO   OCC          E(Eh)            E(eV)
   0   1.0000    -196.647567     -5351.0524
   1   1.0000     -88.686726     -2413.2885
   2   1.0000     -88.686683     -2413.2873
   3   1.0000     -88.650217     -2412.2951
   4   1.0000     -88.649626     -2412.2790
   5   1.0000     -88.648873     -2412.2585
   6   1.0000     -88.648256     -2412.2417
   7   1.0000     -88.591682     -2410.7022
   8   1.0000     -88.591067     -2410.6855
   9   1.0000     -22.007120      -598.8442
  10   1.0000     -18.869676      -513.4700
  11   1.0000     -18.523584      -504.0523
  12   1.0000     -18.507354      -503.6107
  13   1.0000     -18.506696      -503.5928
  14   1.0000     -10.025601      -272.8105
  15   1.0000     -10.025201      -272.7996
  16   1.0000     -10.008286      -272.3393
  17   1.0000     -10.008048      -272.3328
  18   1.0000     -10.007951      -272.3302
  19   1.0000     -10.007748      -272.3247
  20   1.0000     -10.000151      -272.1180
  21   1.0000      -9.999920      -272.1117
  22   1.0000      -9.992265      -271.9033
  23   1.0000      -9.992125      -271.8995
  24   1.0000      -7.743249      -210.7045
  25   1.0000      -7.743145      -210.7017
  26   1.0000      -7.715230      -209.9421
  27   1.0000      -7.714465      -209.9213
  28   1.0000      -7.702950      -209.6079
  29   1.0000      -7.702372      -209.5922
  30   1.0000      -7.643732      -207.9965
  31   1.0000      -7.643111      -207.9796
  32   1.0000      -5.708192      -155.3278
  33   1.0000      -5.708098      -155.3252
  34   1.0000      -5.704036      -155.2147
  35   1.0000      -5.703943      -155.2122
  36   1.0000      -5.698273      -155.0579
  37   1.0000      -5.698162      -155.0549
  38   1.0000      -5.678550      -154.5212
  39   1.0000      -5.677791      -154.5005
  40   1.0000      -5.673561      -154.3854
  41   1.0000      -5.672783      -154.3643
  42   1.0000      -5.672663      -154.3610
  43   1.0000      -5.671921      -154.3408
  44   1.0000      -5.667752      -154.2274
  45   1.0000      -5.667165      -154.2114
  46   1.0000      -5.664156      -154.1295
  47   1.0000      -5.663565      -154.1134
  48   1.0000      -5.658191      -153.9672
  49   1.0000      -5.657623      -153.9517
  50   1.0000      -5.608515      -152.6155
  51   1.0000      -5.607883      -152.5982
  52   1.0000      -5.603507      -152.4792
  53   1.0000      -5.602907      -152.4629
  54   1.0000      -5.601262      -152.4181
  55   1.0000      -5.600640      -152.4012
  56   1.0000      -2.372724       -64.5651
  57   1.0000      -1.439747       -39.1775
  58   1.0000      -1.386136       -37.7187
  59   1.0000      -1.384688       -37.6793
  60   1.0000      -0.651379       -17.7249
  61   1.0000      -0.650723       -17.7071
  62   1.0000      -0.634664       -17.2701
  63   1.0000      -0.626278       -17.0419
  64   1.0000      -0.625038       -17.0082
  65   1.0000      -0.593323       -16.1451
  66   1.0000      -0.593028       -16.1371
  67   1.0000      -0.533084       -14.5060
  68   1.0000      -0.532763       -14.4972
  69   1.0000      -0.451181       -12.2773
  70   1.0000      -0.450221       -12.2511
  71   1.0000      -0.431083       -11.7304
  72   1.0000      -0.429395       -11.6844
  73   1.0000      -0.393938       -10.7196
  74   1.0000      -0.388638       -10.5754
  75   1.0000      -0.358971        -9.7681
  76   1.0000      -0.351325        -9.5600
  77   1.0000      -0.291286        -7.9263
  78   1.0000      -0.289904        -7.8887
  79   1.0000      -0.273953        -7.4547
  80   1.0000      -0.273593        -7.4449
  81   1.0000      -0.261615        -7.1189
  82   1.0000      -0.252174        -6.8620
  83   1.0000      -0.241747        -6.5783
  84   1.0000      -0.238829        -6.4989
  85   1.0000      -0.220908        -6.0112
  86   1.0000      -0.204525        -5.5654
  87   1.0000      -0.188742        -5.1359
  88   1.0000      -0.186485        -5.0745
  89   1.0000      -0.184302        -5.0151
  90   1.0000      -0.183651        -4.9974
  91   1.0000      -0.182124        -4.9559
  92   1.0000      -0.180193        -4.9033
  93   1.0000      -0.155987        -4.2446
  94   1.0000      -0.154869        -4.2142
  95   1.0000      -0.135922        -3.6986
  96   1.0000      -0.133672        -3.6374
  97   1.0000      -0.129411        -3.5214
  98   1.0000      -0.117168        -3.1883
  99   1.0000      -0.108850        -2.9620
 100   1.0000      -0.104391        -2.8406
 101   1.0000      -0.100018        -2.7216
 102   1.0000      -0.087124        -2.3708
 103   1.0000      -0.082373        -2.2415
 104   1.0000      -0.046276        -1.2592
 105   1.0000      -0.038904        -1.0586
 106   1.0000      -0.017891        -0.4868
 107   1.0000      -0.010988        -0.2990
 108   1.0000      -0.009317        -0.2535
 109   1.0000       0.004660         0.1268
 110   1.0000       0.005940         0.1616
 111   1.0000       0.008903         0.2423
 112   1.0000       0.011848         0.3224
 113   1.0000       0.020437         0.5561
 114   1.0000       0.038624         1.0510
 115   1.0000       0.064949         1.7674
 116   0.0000       0.165435         4.5017
 117   0.0000       0.178270         4.8510
 118   0.0000       0.184405         5.0179
 119   0.0000       0.196052         5.3348
 120   0.0000       0.197996         5.3878

MULLIKEN ATOMIC CHARGES AND SPIN POPULATIONS
--------------------------------------------
   0 V :    0.376495    1.189466
   1 S :   -0.358507   -0.047707
   2 S :   -0.355031   -0.047395
   3 S :   -0.078867   -0.009041
   4 S :   -0.082681   -0.009035
   5 O :   -0.495373   -0.136011
   6 C :   -0.177958    0.024700
   7 C :   -0.057915    0.003495
   8 C :   -0.177952    0.025526
   9 C :   -0.056963    0.003194
  10 S :    0.097475    0.004347
  11 S :   -0.208549   -0.004695
  12 S :   -0.211140   -0.004797
  13 S :    0.099350    0.004309
  14 C :   -0.333156    0.000179
  15 C :   -0.332748    0.000205
  16 C :   -0.301758    0.001285
  17 C :   -0.300635    0.001464
  18 C :   -0.095937    0.000234
  19 H :    0.140016   -0.000030
  20 H :    0.078845    0.000016
  21 H :    0.043105    0.000293
  22 H :    0.075721    0.000062
  23 H :    0.102270   -0.000081
  24 H :    0.134818   -0.000243
  25 C :   -0.096379    0.000243
  26 H :    0.078094    0.000039
  27 H :    0.140051   -0.000046
  28 H :    0.075538    0.000056
  29 H :    0.043042    0.000299
  30 H :    0.134648   -0.000252
  31 H :    0.102081   -0.000080
Sum of atomic charges         :   -2.0000000

LOEWDIN ATOMIC CHARGES AND SPIN POPULATIONS
-------------------------------------------
   0 V :   -0.256694    1.143154
   1 S :   -0.081765   -0.036038
   2 S :   -0.077899   -0.035783
   3 S :    0.349772   -0.003903
   4 S :    0.344608   -0.003846
   5 O :   -0.347338   -0.121183
   6 C :   -0.618739    0.023462
   7 C :   -0.501946    0.005730
   8 C :   -0.618865    0.024112
   9 C :   -0.501835    0.005574
  10 S :    0.471460    0.003076
  11 S :    0.157017   -0.004986
  12 S :    0.154479   -0.005081
  13 S :    0.473607    0.003087
  14 C :   -0.309924    0.000099
  15 C :   -0.310132    0.000104
  16 C :   -0.287769    0.001016
  17 C :   -0.287896    0.001179
  18 C :   -0.183580    0.000083
  19 H :    0.063633    0.000087
  20 H :    0.039939    0.000048
  21 H :    0.045944    0.000133
  22 H :    0.052700    0.000052
  23 H :    0.046037   -0.000120
  24 H :    0.060473   -0.000176
  25 C :   -0.183593    0.000079
  26 H :    0.039724    0.000064
  27 H :    0.063645    0.000086
  28 H :    0.052693    0.000051
  29 H :    0.045926    0.000142
  30 H :    0.060340   -0.000180
  31 H :    0.045976   -0.000122

  Mayer bond orders larger than 0.100000
B(  0-V ,  1-S ) :   0.9495 B(  0-V ,  2-S ) :   0.9500 B(  0-V ,  3-S ) :   0.6162
B(  0-V ,  4-S ) :   0.6170 B(  0-V ,  5-O ) :   2.1080 B(  1-S ,  8-C ) :   0.7958
B(  2-S ,  6-C ) :   0.8000 B(  3-S ,  8-C ) :   0.1815 B(  3-S ,  9-C ) :   1.5186
B(  4-S ,  6-C ) :   0.1804 B(  4-S ,  7-C ) :   1.5131 B(  6-C ,  7-C ) :   1.4349
B(  6-C , 10-S ) :   1.3242 B(  7-C , 11-S ) :   0.7001 B(  8-C ,  9-C ) :   1.4304
B(  8-C , 13-S ) :   1.3314 B(  9-C , 12-S ) :   0.6962 B( 10-S , 16-C ) :   0.9119
B( 11-S , 14-C ) :   1.0541 B( 12-S , 15-C ) :   1.0548 B( 13-S , 17-C ) :   0.9101
B( 14-C , 18-C ) :   0.8788 B( 14-C , 23-H ) :   0.9696 B( 14-C , 24-H ) :   0.9779
B( 15-C , 25-C ) :   0.8787 B( 15-C , 30-H ) :   0.9780 B( 15-C , 31-H ) :   0.9695
B( 16-C , 18-C ) :   0.8973 B( 16-C , 19-H ) :   0.9675 B( 16-C , 20-H ) :   0.9632
B( 17-C , 25-C ) :   0.8979 B( 17-C , 26-H ) :   0.9629 B( 17-C , 27-H ) :   0.9672
B( 18-C , 21-H ) :   0.9548 B( 18-C , 22-H ) :   0.9731 B( 25-C , 28-H ) :   0.9731
B( 25-C , 29-H ) :   0.9548

FINAL SINGLE POINT ENERGY     -4592.418107267281

DIPOLE MOMENT
-------------
                                X             Y             Z
Electronic contribution:    -18.38076     -18.29086       7.67864
Nuclear contribution   :     20.79968      19.48383      -8.62047
                        -----------------------------------------
Total Dipole Moment    :      2.41892       1.19297      -0.94183
                        -----------------------------------------
Magnitude (a.u.)       :      2.85682
Magnitude (Debye)      :      7.26145

Rotational constants in cm-1:     0.012769     0.002547     0.002430
Rotational constants in MHz :   382.803969    76.344062    72.834982

                             ****ORCA TERMINATED NORMALLY****
TOTAL RUN TIME: 0 days 0 hours 43 minutes 11 seconds 534 msec
