                         Program Version 5.0.4 -  RELEASE  -
|  1> ! nofrozencore ReducedPop printbasis
|  2> ! B3LYP TZVP
|  3>
|  4> %basis
|  5> newgto V "CP(PPP)" end
|  6> end
|  7>
|  8> %pal
|  9> nprocs 4
| 10> end
| 11>
| 12> % sym SymThresh 1e-2 end
| 13> * xyz -2 2
| 14> V 0.3750757364539849 -0.39032681399091285 0.9752421358673979
| 15> S 2.150210704021719 0.9826854561574381 -0.008362850415393627
| 16> S -0.7804577556959552 1.7265511780218512 1.403928655203814
| 17> S 1.0230043851299193 -1.9795911599129261 -0.772660989949377
| 18> S -1.9005332662805565 -1.245574076761011 0.667427833713064
| 19> O 0.9174004872272766 -0.9471824565832292 2.3698717729706633
| 20> C -2.462719508612108 1.2336042449206752 1.6498859751652624
| 21> C -2.9447354427200723 -0.008003614065696907 1.375677465057892
| 22> C 3.0812883451400843 -0.14839040783166488 -0.9981331341887366
| 23> C 2.5909026858572513 -1.3740378952631906 -1.3235268048148399
| 24> S -3.5225808598400814 2.551421110307654 2.371424141906877
| 25> S -4.641603538070841 -0.4609833839933619 1.589095871906812
| 26> S 3.519689013684763 -2.5470860434157894 -2.3696541063544023
| 27> S 4.644718285212772 0.465634241513009 -1.5953001607922348
| 28> C -5.609560736109298 0.5614765665849206 0.40458932923387436
| 29> C 3.452816872295584 -1.6774648286568457 -4.004800743094118
| 30> C -4.617280960624696 2.898187208513815 0.9108937889312779
| 31> C 4.42769727971773 0.6450242163251124 -3.4150435639125303
| 32> C -5.873749946647172 1.9905128303580275 0.7971971804719439
| 33> H -4.06385938224034 3.199000297359303 -0.024759002933207815
| 34> H -5.111268714193764 3.8237473610299837 1.3452719291835629
| 35> H -6.535751481262111 2.445416636734789 0.04243606348167544
| 36> H -6.373471562524196 2.12518040423697 1.7785565588399375
| 37> H -6.44950566277796 -0.032275177776278446 -0.06654836160672237
| 38> H -4.812010631825177 0.6966267687664187 -0.3825855256495168
| 39> C 4.549929766952071 -0.617153556499111 -4.240550412673332
| 40> H 5.027441686087038 1.5065216069348293 -3.771843363692985
| 41> H 3.3608178221677774 0.9307818003829124 -3.4864993050560584
| 42> H 5.5039849682846596 -1.143119263279557 -4.081610807611588
| 43> H 4.514411691192958 -0.3379628640713473 -5.30612510378704
| 44> H 2.4197463983514567 -1.393312168056672 -4.280467398924488
| 45> H 3.7702626834146784 -2.510891536158638 -4.667992393377549
| 46> *
| 47>
| 48> % eprnmr
| 49> gtensor true
| 50> Nuclei = all H {aiso,adip,aorb,fgrad,rho}
| 51> Nuclei = all V {aiso,adip,aorb,fgrad,rho}
| 52> end
| 53>
| 54>                          ****END OF INPUT****

CARTESIAN COORDINATES (ANGSTROEM)
---------------------------------
  V      0.375405   -0.390717    0.976313
  S      2.150540    0.982295   -0.007292
  S     -0.780129    1.726161    1.405000
  S      1.023333   -1.979982   -0.771590
  S     -1.900204   -1.245965    0.668499
  O      0.917729   -0.947573    2.370943
  C     -2.462391    1.233214    1.650957
  C     -2.944406   -0.008394    1.376749
  C      3.081617   -0.148781   -0.997062
  C      2.591232   -1.374429   -1.322456
  S     -3.522252    2.551030    2.372495
  S     -4.641275   -0.461374    1.590167
  S      3.520018   -2.547477   -2.368583
  S      4.645047    0.465244   -1.594229
  C     -5.609232    0.561086    0.405661
  C      3.453146   -1.677855   -4.003730
  C     -4.616952    2.897797    0.911965
  C      4.428026    0.644634   -3.413972
  C     -5.873421    1.990122    0.798268
  H     -4.063530    3.198610   -0.023688
  H     -5.110940    3.823357    1.346343
  H     -6.535422    2.445026    0.043507
  H     -6.373143    2.124790    1.779628
  H     -6.449177   -0.032666   -0.065477
  H     -4.811682    0.696236   -0.381514
  C      4.550259   -0.617544   -4.239479
  H      5.027771    1.506131   -3.770772
  H      3.361147    0.930391   -3.485428
  H      5.504314   -1.143510   -4.080540
  H      4.514741   -0.338354   -5.305054
  H      2.420075   -1.393703   -4.279396
  H      3.770592   -2.511282   -4.666921

 Total Charge           Charge          ....   -2
 Multiplicity           Mult            ....    2
 Number of Electrons    NEL             ....  233
 Basis Dimension        Dim             ....  517

ORBITAL ENERGIES
----------------
                 SPIN UP ORBITALS
  NO   OCC          E(Eh)            E(eV)
   0   1.0000    -196.640484     -5350.8596
   1   1.0000     -88.681206     -2413.1383
   2   1.0000     -88.679261     -2413.0854
   3   1.0000     -88.674916     -2412.9671
   4   1.0000     -88.674485     -2412.9554
   5   1.0000     -88.614242     -2411.3161
   6   1.0000     -88.613379     -2411.2926
   7   1.0000     -88.611283     -2411.2356
   8   1.0000     -88.610890     -2411.2249
   9   1.0000     -22.016289      -599.0937
  10   1.0000     -18.857578      -513.1408
  11   1.0000     -18.523118      -504.0397
  12   1.0000     -18.517336      -503.8823
  13   1.0000     -18.517301      -503.8814
  14   1.0000     -10.026196      -272.8267
  15   1.0000     -10.020635      -272.6753
  16   1.0000     -10.019283      -272.6385
  17   1.0000     -10.016083      -272.5515
  18   1.0000     -10.009460      -272.3712
  19   1.0000     -10.006569      -272.2926
  20   1.0000      -9.994151      -271.9547
  21   1.0000      -9.993184      -271.9284
  22   1.0000      -9.990386      -271.8522
  23   1.0000      -9.989852      -271.8377
  24   1.0000      -7.733992      -210.4526
  25   1.0000      -7.732392      -210.4091
  26   1.0000      -7.728986      -210.3164
  27   1.0000      -7.728769      -210.3105
  28   1.0000      -7.668491      -208.6702
  29   1.0000      -7.667737      -208.6497
  30   1.0000      -7.665780      -208.5965
  31   1.0000      -7.665448      -208.5875
  32   1.0000      -5.699277      -155.0852
  33   1.0000      -5.697663      -155.0413
  34   1.0000      -5.695539      -154.9835
  35   1.0000      -5.694212      -154.9474
  36   1.0000      -5.693989      -154.9413
  37   1.0000      -5.693865      -154.9379
  38   1.0000      -5.690213      -154.8386
  39   1.0000      -5.689913      -154.8304
  40   1.0000      -5.688683      -154.7969
  41   1.0000      -5.687114      -154.7542
  42   1.0000      -5.683772      -154.6633
  43   1.0000      -5.683576      -154.6580
  44   1.0000      -5.633342      -153.2910
  45   1.0000      -5.632562      -153.2698
  46   1.0000      -5.630638      -153.2175
  47   1.0000      -5.630313      -153.2086
  48   1.0000      -5.626932      -153.1166
  49   1.0000      -5.626517      -153.1053
  50   1.0000      -5.626166      -153.0958
  51   1.0000      -5.625738      -153.0841
  52   1.0000      -5.624221      -153.0428
  53   1.0000      -5.623879      -153.0335
  54   1.0000      -5.623747      -153.0299
  55   1.0000      -5.623394      -153.0203
  56   1.0000      -2.409974       -65.5787
  57   1.0000      -1.451344       -39.4931
  58   1.0000      -1.439755       -39.1777
  59   1.0000      -1.438673       -39.1483
  60   1.0000      -0.644308       -17.5325
  61   1.0000      -0.644089       -17.5265
  62   1.0000      -0.618602       -16.8330
  63   1.0000      -0.594481       -16.1766
  64   1.0000      -0.593890       -16.1606
  65   1.0000      -0.575357       -15.6563
  66   1.0000      -0.574364       -15.6292
  67   1.0000      -0.492027       -13.3887
  68   1.0000      -0.490173       -13.3383
  69   1.0000      -0.486457       -13.2372
  70   1.0000      -0.484768       -13.1912
  71   1.0000      -0.422214       -11.4890
  72   1.0000      -0.419263       -11.4087
  73   1.0000      -0.410972       -11.1831
  74   1.0000      -0.405096       -11.0232
  75   1.0000      -0.374227       -10.1832
  76   1.0000      -0.370922       -10.0933
  77   1.0000      -0.291785        -7.9399
  78   1.0000      -0.290218        -7.8972
  79   1.0000      -0.280812        -7.6413
  80   1.0000      -0.279306        -7.6003
  81   1.0000      -0.259913        -7.0726
  82   1.0000      -0.254118        -6.9149
  83   1.0000      -0.238851        -6.4995
  84   1.0000      -0.235396        -6.4055
  85   1.0000      -0.196725        -5.3531
  86   1.0000      -0.195312        -5.3147
  87   1.0000      -0.189445        -5.1551
  88   1.0000      -0.185516        -5.0482
  89   1.0000      -0.182822        -4.9748
  90   1.0000      -0.181508        -4.9391
  91   1.0000      -0.176236        -4.7956
  92   1.0000      -0.155612        -4.2344
  93   1.0000      -0.151287        -4.1167
  94   1.0000      -0.150600        -4.0980
  95   1.0000      -0.136266        -3.7080
  96   1.0000      -0.130130        -3.5410
  97   1.0000      -0.098267        -2.6740
  98   1.0000      -0.097239        -2.6460
  99   1.0000      -0.087831        -2.3900
 100   1.0000      -0.085975        -2.3395
 101   1.0000      -0.080551        -2.1919
 102   1.0000      -0.078486        -2.1357
 103   1.0000      -0.069852        -1.9008
 104   1.0000      -0.050121        -1.3639
 105   1.0000      -0.039095        -1.0638
 106   1.0000      -0.038208        -1.0397
 107   1.0000      -0.036181        -0.9845
 108   1.0000      -0.032203        -0.8763
 109   1.0000      -0.013625        -0.3707
 110   1.0000      -0.004475        -0.1218
 111   1.0000      -0.003796        -0.1033
 112   1.0000       0.005741         0.1562
 113   1.0000       0.010218         0.2780
 114   1.0000       0.015983         0.4349
 115   1.0000       0.033169         0.9026
 116   1.0000       0.059273         1.6129
 117   0.0000       0.185704         5.0533
 118   0.0000       0.191734         5.2174
 119   0.0000       0.195270         5.3136
 120   0.0000       0.196382         5.3438
 121   0.0000       0.211058         5.7432

                 SPIN DOWN ORBITALS
  NO   OCC          E(Eh)            E(eV)
   0   1.0000    -196.640625     -5350.8634
   1   1.0000     -88.681220     -2413.1387
   2   1.0000     -88.679275     -2413.0857
   3   1.0000     -88.674929     -2412.9675
   4   1.0000     -88.674498     -2412.9558
   5   1.0000     -88.614402     -2411.3205
   6   1.0000     -88.613539     -2411.2970
   7   1.0000     -88.611443     -2411.2399
   8   1.0000     -88.611049     -2411.2292
   9   1.0000     -22.001623      -598.6946
  10   1.0000     -18.861151      -513.2380
  11   1.0000     -18.517990      -503.9001
  12   1.0000     -18.501847      -503.4609
  13   1.0000     -18.501168      -503.4424
  14   1.0000     -10.026192      -272.8266
  15   1.0000     -10.020631      -272.6752
  16   1.0000     -10.019279      -272.6384
  17   1.0000     -10.016079      -272.5514
  18   1.0000     -10.009459      -272.3712
  19   1.0000     -10.006569      -272.2926
  20   1.0000      -9.993893      -271.9477
  21   1.0000      -9.992927      -271.9214
  22   1.0000      -9.990135      -271.8454
  23   1.0000      -9.989602      -271.8309
  24   1.0000      -7.734006      -210.4530
  25   1.0000      -7.732406      -210.4095
  26   1.0000      -7.729000      -210.3168
  27   1.0000      -7.728783      -210.3109
  28   1.0000      -7.668639      -208.6743
  29   1.0000      -7.667885      -208.6538
  30   1.0000      -7.665928      -208.6005
  31   1.0000      -7.665596      -208.5915
  32   1.0000      -5.699295      -155.0857
  33   1.0000      -5.697681      -155.0418
  34   1.0000      -5.695560      -154.9841
  35   1.0000      -5.694229      -154.9478
  36   1.0000      -5.694004      -154.9417
  37   1.0000      -5.693885      -154.9385
  38   1.0000      -5.690233      -154.8391
  39   1.0000      -5.689933      -154.8309
  40   1.0000      -5.688700      -154.7974
  41   1.0000      -5.687131      -154.7547
  42   1.0000      -5.683788      -154.6637
  43   1.0000      -5.683592      -154.6584
  44   1.0000      -5.633513      -153.2957
  45   1.0000      -5.632733      -153.2745
  46   1.0000      -5.630810      -153.2221
  47   1.0000      -5.630485      -153.2133
  48   1.0000      -5.627315      -153.1270
  49   1.0000      -5.626660      -153.1092
  50   1.0000      -5.626555      -153.1063
  51   1.0000      -5.625877      -153.0879
  52   1.0000      -5.624615      -153.0536
  53   1.0000      -5.624268      -153.0441
  54   1.0000      -5.623879      -153.0335
  55   1.0000      -5.623527      -153.0240
  56   1.0000      -2.365800       -64.3767
  57   1.0000      -1.432528       -38.9811
  58   1.0000      -1.378358       -37.5070
  59   1.0000      -1.377698       -37.4891
  60   1.0000      -0.644257       -17.5311
  61   1.0000      -0.644037       -17.5252
  62   1.0000      -0.626253       -17.0412
  63   1.0000      -0.594296       -16.1716
  64   1.0000      -0.593687       -16.1550
  65   1.0000      -0.575350       -15.6561
  66   1.0000      -0.574355       -15.6290
  67   1.0000      -0.492049       -13.3893
  68   1.0000      -0.490205       -13.3392
  69   1.0000      -0.486470       -13.2375
  70   1.0000      -0.484796       -13.1920
  71   1.0000      -0.422454       -11.4956
  72   1.0000      -0.419566       -11.4170
  73   1.0000      -0.410980       -11.1833
  74   1.0000      -0.405196       -11.0259
  75   1.0000      -0.374191       -10.1823
  76   1.0000      -0.370933       -10.0936
  77   1.0000      -0.291765        -7.9393
  78   1.0000      -0.290197        -7.8967
  79   1.0000      -0.280796        -7.6409
  80   1.0000      -0.279289        -7.5999
  81   1.0000      -0.259683        -7.0663
  82   1.0000      -0.254058        -6.9133
  83   1.0000      -0.238782        -6.4976
  84   1.0000      -0.235354        -6.4043
  85   1.0000      -0.196486        -5.3467
  86   1.0000      -0.195253        -5.3131
  87   1.0000      -0.188893        -5.1400
  88   1.0000      -0.185230        -5.0404
  89   1.0000      -0.182674        -4.9708
  90   1.0000      -0.180842        -4.9210
  91   1.0000      -0.175320        -4.7707
  92   1.0000      -0.155390        -4.2284
  93   1.0000      -0.150959        -4.1078
  94   1.0000      -0.150044        -4.0829
  95   1.0000      -0.136063        -3.7025
  96   1.0000      -0.129841        -3.5332
  97   1.0000      -0.097455        -2.6519
  98   1.0000      -0.096136        -2.6160
  99   1.0000      -0.087948        -2.3932
 100   1.0000      -0.085885        -2.3370
 101   1.0000      -0.082421        -2.2428
 102   1.0000      -0.078074        -2.1245
 103   1.0000      -0.071052        -1.9334
 104   1.0000      -0.046165        -1.2562
 105   1.0000      -0.039159        -1.0656
 106   1.0000      -0.037459        -1.0193
 107   1.0000      -0.035143        -0.9563
 108   1.0000      -0.032210        -0.8765
 109   1.0000      -0.012753        -0.3470
 110   1.0000      -0.005777        -0.1572
 111   1.0000      -0.002708        -0.0737
 112   1.0000       0.006594         0.1794
 113   1.0000       0.011119         0.3026
 114   1.0000       0.033431         0.9097
 115   1.0000       0.058484         1.5914
 116   0.0000       0.184149         5.0110
 117   0.0000       0.186985         5.0881
 118   0.0000       0.192560         5.2398
 119   0.0000       0.195684         5.3248
 120   0.0000       0.196679         5.3519

MULLIKEN ATOMIC CHARGES AND SPIN POPULATIONS
--------------------------------------------
   0 V :    0.447058    1.199017
   1 S :   -0.257033   -0.024268
   2 S :   -0.250103   -0.024080
   3 S :   -0.250835   -0.024138
   4 S :   -0.257801   -0.023904
   5 O :   -0.506167   -0.138688
   6 C :   -0.115692    0.009165
   7 C :   -0.114475    0.008580
   8 C :   -0.112506    0.008745
   9 C :   -0.118367    0.009071
  10 S :   -0.040978   -0.000347
  11 S :   -0.029296    0.000045
  12 S :   -0.043570   -0.000321
  13 S :   -0.037870   -0.000070
  14 C :   -0.373069    0.000194
  15 C :   -0.330600    0.000273
  16 C :   -0.328602    0.000226
  17 C :   -0.356202    0.000285
  18 C :   -0.059617    0.000245
  19 H :    0.143552   -0.000100
  20 H :    0.071253    0.000026
  21 H :    0.046852    0.000052
  22 H :    0.072900   -0.000001
  23 H :    0.109311    0.000019
  24 H :    0.154474   -0.000103
  25 C :   -0.073710    0.000186
  26 H :    0.108188    0.000030
  27 H :    0.151041   -0.000110
  28 H :    0.076129    0.000002
  29 H :    0.045369    0.000041
  30 H :    0.144974   -0.000103
  31 H :    0.085394    0.000029
Sum of atomic charges         :   -2.0000000

LOEWDIN ATOMIC CHARGES AND SPIN POPULATIONS
-------------------------------------------
   0 V :   -0.243128    1.153009
   1 S :    0.086211   -0.016402
   2 S :    0.090930   -0.016326
   3 S :    0.090353   -0.016368
   4 S :    0.086371   -0.016152
   5 O :   -0.350718   -0.124147
   6 C :   -0.535840    0.010230
   7 C :   -0.573996    0.009769
   8 C :   -0.565465    0.009837
   9 C :   -0.541628    0.010123
  10 S :    0.327213   -0.001140
  11 S :    0.352499   -0.000908
  12 S :    0.330253   -0.001125
  13 S :    0.345693   -0.000962
  14 C :   -0.318213    0.000162
  15 C :   -0.293437    0.000170
  16 C :   -0.299226    0.000161
  17 C :   -0.306124    0.000178
  18 C :   -0.187843   -0.000031
  19 H :    0.068228   -0.000037
  20 H :    0.048154    0.000003
  21 H :    0.048714    0.000019
  22 H :    0.052564    0.000012
  23 H :    0.056998    0.000001
  24 H :    0.079604   -0.000028
  25 C :   -0.186050   -0.000037
  26 H :    0.052010    0.000008
  27 H :    0.072517   -0.000025
  28 H :    0.053120    0.000010
  29 H :    0.047571    0.000019
  30 H :    0.065724   -0.000033
  31 H :    0.046941    0.000008

  Mayer bond orders larger than 0.100000
B(  0-V ,  1-S ) :   0.7914 B(  0-V ,  2-S ) :   0.7855 B(  0-V ,  3-S ) :   0.7880
B(  0-V ,  4-S ) :   0.7919 B(  0-V ,  5-O ) :   2.1084 B(  1-S ,  8-C ) :   1.1295
B(  2-S ,  6-C ) :   1.1453 B(  3-S ,  9-C ) :   1.1427 B(  4-S ,  7-C ) :   1.1243
B(  6-C ,  7-C ) :   1.5122 B(  6-C , 10-S ) :   0.9321 B(  7-C , 11-S ) :   0.9792
B(  8-C ,  9-C ) :   1.5157 B(  8-C , 13-S ) :   0.9665 B(  9-C , 12-S ) :   0.9423
B( 10-S , 16-C ) :   1.0545 B( 11-S , 14-C ) :   0.9919 B( 12-S , 15-C ) :   1.0360
B( 13-S , 17-C ) :   0.9911 B( 14-C , 18-C ) :   0.8728 B( 14-C , 23-H ) :   0.9491
B( 14-C , 24-H ) :   0.9947 B( 15-C , 25-C ) :   0.8738 B( 15-C , 30-H ) :   0.9566
B( 15-C , 31-H ) :   0.9816 B( 16-C , 18-C ) :   0.8700 B( 16-C , 19-H ) :   0.9449
B( 16-C , 20-H ) :   0.9856 B( 17-C , 25-C ) :   0.8769 B( 17-C , 26-H ) :   0.9573
B( 17-C , 27-H ) :   0.9883 B( 18-C , 21-H ) :   0.9538 B( 18-C , 22-H ) :   0.9690
B( 25-C , 28-H ) :   0.9720 B( 25-C , 29-H ) :   0.9533

FINAL SINGLE POINT ENERGY     -4592.692414817818

DIPOLE MOMENT
-------------
                                X             Y             Z
Electronic contribution:      8.96318      -9.45818      23.33695
Nuclear contribution   :     -9.94105      10.53701     -25.99065
                        -----------------------------------------
Total Dipole Moment    :     -0.97787       1.07883      -2.65370
                        -----------------------------------------
Magnitude (a.u.)       :      3.02692
Magnitude (Debye)      :      7.69381

Rotational constants in cm-1:     0.012768     0.002548     0.002431
Rotational constants in MHz :   382.764881    76.394693    72.878871

                             ****ORCA TERMINATED NORMALLY****
TOTAL RUN TIME: 0 days 0 hours 43 minutes 7 seconds 945 msec
