                         Program Version 5.0.4 -  RELEASE  -
|  1> ! nofrozencore ReducedPop printbasis
|  2> ! B3LYP TZVP
|  3>
|  4> %basis
|  5> newgto V "CP(PPP)" end
|  6> end
|  7>
|  8> %pal
|  9> nprocs 8
| 10> end
| 11>
| 12> % sym SymThresh 1e-2 end
| 13> * xyz -2 2
| 14> V 1.0274450868652159 0.4406501228416989 -0.00387580728683747
| 15> S -0.12919582023843046 1.3150734597020917 -1.9248050291993446
| 16> S -0.46797074434867775 1.9183098153050238 1.3416982981967855
| 17> S 1.0614956322182991 -1.6634685459121936 -1.3434291678061203
| 18> S 0.8857046689662004 -0.9894894425516788 1.9251100435986095
| 19> O 2.495891715140144 1.0678882081174121 -0.014179406883695725
| 20> C -0.30650150039070684 1.2540423791561026 2.9779504888650763
| 21> C 0.21505768254083846 0.019732893750030935 3.207111733700186
| 22> C 0.14651853956377123 0.13609459264079662 -3.2077624776393647
| 23> C 0.6848970640139183 -1.091132038868209 -2.9787545806228177
| 24> S -0.9459887266015413 2.2653597157361025 4.330886344664201
| 25> S 0.3159660512609981 -0.7491498581053628 4.83699543576715
| 26> S 0.9707868901749672 -2.2558835587871613 -4.329314419136498
| 27> S -0.3446891398994233 0.7353098279312617 -4.838100094017081
| 28> C -1.4406876313223584 -0.9978901899043316 5.367153967157405
| 29> C -0.7698596632957581 -2.6924757738545666 -4.773524128529507
| 30> C -2.4617420777366497 1.3066476159240406 4.781309791327043
| 31> C -1.7397601510659562 -0.36466727024459694 -5.355816633795757
| 32> C -2.2257800887505477 0.2283427336216722 5.83935765823175
| 33> H -2.853156202868332 0.8801615271241049 3.8479598862772106
| 34> H -3.1936923972903264 2.039032014928587 5.153974221458256
| 35> H -3.2059103047888327 -0.1276834974417502 6.196115766162767
| 36> H -1.717943514162796 0.6796049351541933 6.700242407609969
| 37> H -1.3596645132649168 -1.7173115994504342 6.196794743699848
| 38> H -1.9670931123460997 -1.4990456693720902 4.541605651097343
| 39> C -1.3950293390369595 -1.7788942326793438 -5.82781963582267
| 40> H -2.2095824790211855 0.18814269955745355 -6.183386058540403
| 41> H -2.4602652393529914 -0.39753990744865175 -4.526233475231927
| 42> H -0.723064217879881 -1.7222683724569332 -6.692530873073826
| 43> H -2.330188837095796 -2.244476372341383 -6.178923453469334
| 44> H -1.3446413061654248 -2.685186631684588 -3.8383393549818026
| 45> H -0.743276271728702 -3.7264406577920504 -5.147702846391624
| 46> *
| 47>
| 48> % eprnmr
| 49> gtensor true
| 50> Nuclei = all H {aiso,adip,aorb,fgrad,rho}
| 51> Nuclei = all V {aiso,adip,aorb,fgrad,rho}
| 52> end
| 53>
| 54>                          ****END OF INPUT****

CARTESIAN COORDINATES (ANGSTROEM)
---------------------------------
  V      1.028525    0.441136   -0.003801
  S     -0.128116    1.315560   -1.924730
  S     -0.466891    1.918796    1.341773
  S      1.062576   -1.662982   -1.343354
  S      0.886785   -0.989003    1.925185
  O      2.496972    1.068374   -0.014105
  C     -0.305421    1.254528    2.978025
  C      0.216138    0.020219    3.207187
  C      0.147599    0.136581   -3.207688
  C      0.685977   -1.090646   -2.978680
  S     -0.944909    2.265846    4.330961
  S      0.317046   -0.748664    4.837070
  S      0.971867   -2.255398   -4.329240
  S     -0.343609    0.735796   -4.838025
  C     -1.439607   -0.997404    5.367229
  C     -0.768780   -2.691990   -4.773449
  C     -2.460662    1.307134    4.781385
  C     -1.738680   -0.364181   -5.355742
  C     -2.224700    0.228829    5.839432
  H     -2.852076    0.880648    3.848035
  H     -3.192612    2.039518    5.154049
  H     -3.204830   -0.127197    6.196191
  H     -1.716863    0.680091    6.700317
  H     -1.358584   -1.716826    6.196870
  H     -1.966013   -1.498560    4.541680
  C     -1.393949   -1.778408   -5.827745
  H     -2.208502    0.188629   -6.183311
  H     -2.459185   -0.397054   -4.526159
  H     -0.721984   -1.721782   -6.692456
  H     -2.329109   -2.243990   -6.178849
  H     -1.343561   -2.684701   -3.838265
  H     -0.742196   -3.725955   -5.147628

 Total Charge           Charge          ....   -2
 Multiplicity           Mult            ....    2
 Number of Electrons    NEL             ....  233
 Basis Dimension        Dim             ....  517

ORBITAL ENERGIES
----------------
                 SPIN UP ORBITALS
  NO   OCC          E(Eh)            E(eV)
   0   1.0000    -196.640114     -5350.8495
   1   1.0000     -88.677090     -2413.0263
   2   1.0000     -88.676922     -2413.0217
   3   1.0000     -88.676319     -2413.0053
   4   1.0000     -88.676317     -2413.0053
   5   1.0000     -88.612370     -2411.2652
   6   1.0000     -88.612355     -2411.2648
   7   1.0000     -88.611528     -2411.2423
   8   1.0000     -88.611486     -2411.2411
   9   1.0000     -22.015924      -599.0837
  10   1.0000     -18.857212      -513.1308
  11   1.0000     -18.522744      -504.0295
  12   1.0000     -18.516988      -503.8729
  13   1.0000     -18.516924      -503.8711
  14   1.0000     -10.018425      -272.6152
  15   1.0000     -10.018108      -272.6066
  16   1.0000     -10.015475      -272.5349
  17   1.0000     -10.015305      -272.5303
  18   1.0000     -10.005322      -272.2586
  19   1.0000     -10.005173      -272.2546
  20   1.0000      -9.992165      -271.9006
  21   1.0000      -9.992061      -271.8978
  22   1.0000      -9.991110      -271.8719
  23   1.0000      -9.991096      -271.8716
  24   1.0000      -7.730532      -210.3585
  25   1.0000      -7.730393      -210.3547
  26   1.0000      -7.730018      -210.3445
  27   1.0000      -7.730000      -210.3440
  28   1.0000      -7.666476      -208.6154
  29   1.0000      -7.666412      -208.6137
  30   1.0000      -7.666345      -208.6119
  31   1.0000      -7.666344      -208.6118
  32   1.0000      -5.695863      -154.9923
  33   1.0000      -5.695714      -154.9882
  34   1.0000      -5.695195      -154.9741
  35   1.0000      -5.695176      -154.9736
  36   1.0000      -5.691787      -154.8814
  37   1.0000      -5.691656      -154.8778
  38   1.0000      -5.691494      -154.8734
  39   1.0000      -5.691478      -154.8730
  40   1.0000      -5.685311      -154.7052
  41   1.0000      -5.685166      -154.7012
  42   1.0000      -5.684721      -154.6891
  43   1.0000      -5.684714      -154.6889
  44   1.0000      -5.631260      -153.2344
  45   1.0000      -5.631251      -153.2341
  46   1.0000      -5.631249      -153.2341
  47   1.0000      -5.631187      -153.2324
  48   1.0000      -5.624939      -153.0624
  49   1.0000      -5.624936      -153.0623
  50   1.0000      -5.624810      -153.0588
  51   1.0000      -5.624736      -153.0568
  52   1.0000      -5.624519      -153.0510
  53   1.0000      -5.624460      -153.0493
  54   1.0000      -5.624190      -153.0420
  55   1.0000      -5.624187      -153.0419
  56   1.0000      -2.409695       -65.5711
  57   1.0000      -1.451020       -39.4843
  58   1.0000      -1.439548       -39.1721
  59   1.0000      -1.438429       -39.1416
  60   1.0000      -0.643013       -17.4973
  61   1.0000      -0.642905       -17.4943
  62   1.0000      -0.618263       -16.8238
  63   1.0000      -0.593515       -16.1504
  64   1.0000      -0.593068       -16.1382
  65   1.0000      -0.574754       -15.6399
  66   1.0000      -0.574587       -15.6353
  67   1.0000      -0.491291       -13.3687
  68   1.0000      -0.489457       -13.3188
  69   1.0000      -0.486712       -13.2441
  70   1.0000      -0.485595       -13.2137
  71   1.0000      -0.422788       -11.5046
  72   1.0000      -0.419981       -11.4283
  73   1.0000      -0.411954       -11.2099
  74   1.0000      -0.406738       -11.0679
  75   1.0000      -0.375935       -10.2297
  76   1.0000      -0.372849       -10.1457
  77   1.0000      -0.291674        -7.9368
  78   1.0000      -0.291501        -7.9321
  79   1.0000      -0.277592        -7.5537
  80   1.0000      -0.277328        -7.5465
  81   1.0000      -0.259685        -7.0664
  82   1.0000      -0.254797        -6.9334
  83   1.0000      -0.241523        -6.5722
  84   1.0000      -0.238929        -6.5016
  85   1.0000      -0.194819        -5.3013
  86   1.0000      -0.192009        -5.2248
  87   1.0000      -0.191632        -5.2146
  88   1.0000      -0.190915        -5.1951
  89   1.0000      -0.184470        -5.0197
  90   1.0000      -0.184221        -5.0129
  91   1.0000      -0.180803        -4.9199
  92   1.0000      -0.150658        -4.0996
  93   1.0000      -0.149661        -4.0725
  94   1.0000      -0.143525        -3.9055
  95   1.0000      -0.142824        -3.8864
  96   1.0000      -0.141475        -3.8497
  97   1.0000      -0.097404        -2.6505
  98   1.0000      -0.097240        -2.6460
  99   1.0000      -0.089054        -2.4233
 100   1.0000      -0.084649        -2.3034
 101   1.0000      -0.080670        -2.1952
 102   1.0000      -0.080248        -2.1837
 103   1.0000      -0.069761        -1.8983
 104   1.0000      -0.050140        -1.3644
 105   1.0000      -0.038004        -1.0341
 106   1.0000      -0.037856        -1.0301
 107   1.0000      -0.035796        -0.9741
 108   1.0000      -0.031681        -0.8621
 109   1.0000      -0.013693        -0.3726
 110   1.0000      -0.003694        -0.1005
 111   1.0000      -0.003558        -0.0968
 112   1.0000       0.006543         0.1780
 113   1.0000       0.010799         0.2939
 114   1.0000       0.016353         0.4450
 115   1.0000       0.033871         0.9217
 116   1.0000       0.059688         1.6242
 117   0.0000       0.187728         5.1084
 118   0.0000       0.194945         5.3047
 119   0.0000       0.196050         5.3348
 120   0.0000       0.196242         5.3400
 121   0.0000       0.210288         5.7222

                 SPIN DOWN ORBITALS
  NO   OCC          E(Eh)            E(eV)
   0   1.0000    -196.640255     -5350.8534
   1   1.0000     -88.677105     -2413.0267
   2   1.0000     -88.676936     -2413.0221
   3   1.0000     -88.676331     -2413.0056
   4   1.0000     -88.676328     -2413.0056
   5   1.0000     -88.612532     -2411.2696
   6   1.0000     -88.612518     -2411.2692
   7   1.0000     -88.611684     -2411.2465
   8   1.0000     -88.611643     -2411.2454
   9   1.0000     -22.001261      -598.6848
  10   1.0000     -18.860794      -513.2283
  11   1.0000     -18.517614      -503.8899
  12   1.0000     -18.501502      -503.4515
  13   1.0000     -18.500801      -503.4324
  14   1.0000     -10.018420      -272.6151
  15   1.0000     -10.018103      -272.6064
  16   1.0000     -10.015472      -272.5349
  17   1.0000     -10.015302      -272.5302
  18   1.0000     -10.005321      -272.2586
  19   1.0000     -10.005173      -272.2546
  20   1.0000      -9.991876      -271.8928
  21   1.0000      -9.991776      -271.8900
  22   1.0000      -9.990889      -271.8659
  23   1.0000      -9.990871      -271.8654
  24   1.0000      -7.730547      -210.3589
  25   1.0000      -7.730408      -210.3551
  26   1.0000      -7.730030      -210.3448
  27   1.0000      -7.730012      -210.3443
  28   1.0000      -7.666620      -208.6193
  29   1.0000      -7.666556      -208.6176
  30   1.0000      -7.666497      -208.6160
  31   1.0000      -7.666496      -208.6160
  32   1.0000      -5.695880      -154.9928
  33   1.0000      -5.695731      -154.9887
  34   1.0000      -5.695211      -154.9746
  35   1.0000      -5.695193      -154.9741
  36   1.0000      -5.691808      -154.8820
  37   1.0000      -5.691676      -154.8784
  38   1.0000      -5.691514      -154.8740
  39   1.0000      -5.691498      -154.8735
  40   1.0000      -5.685332      -154.7058
  41   1.0000      -5.685187      -154.7018
  42   1.0000      -5.684732      -154.6894
  43   1.0000      -5.684726      -154.6893
  44   1.0000      -5.631432      -153.2390
  45   1.0000      -5.631423      -153.2388
  46   1.0000      -5.631412      -153.2385
  47   1.0000      -5.631367      -153.2373
  48   1.0000      -5.625340      -153.0733
  49   1.0000      -5.625340      -153.0733
  50   1.0000      -5.625174      -153.0688
  51   1.0000      -5.625104      -153.0669
  52   1.0000      -5.624659      -153.0548
  53   1.0000      -5.624599      -153.0531
  54   1.0000      -5.624330      -153.0458
  55   1.0000      -5.624328      -153.0457
  56   1.0000      -2.365530       -64.3693
  57   1.0000      -1.432190       -38.9719
  58   1.0000      -1.378191       -37.5025
  59   1.0000      -1.377453       -37.4824
  60   1.0000      -0.642962       -17.4959
  61   1.0000      -0.642852       -17.4929
  62   1.0000      -0.625936       -17.0326
  63   1.0000      -0.593325       -16.1452
  64   1.0000      -0.592857       -16.1325
  65   1.0000      -0.574747       -15.6397
  66   1.0000      -0.574579       -15.6351
  67   1.0000      -0.491303       -13.3690
  68   1.0000      -0.489468       -13.3191
  69   1.0000      -0.486737       -13.2448
  70   1.0000      -0.485626       -13.2145
  71   1.0000      -0.423028       -11.5112
  72   1.0000      -0.420289       -11.4367
  73   1.0000      -0.411959       -11.2100
  74   1.0000      -0.406830       -11.0704
  75   1.0000      -0.375890       -10.2285
  76   1.0000      -0.372876       -10.1465
  77   1.0000      -0.291648        -7.9361
  78   1.0000      -0.291491        -7.9319
  79   1.0000      -0.277568        -7.5530
  80   1.0000      -0.277315        -7.5461
  81   1.0000      -0.259471        -7.0606
  82   1.0000      -0.254747        -6.9320
  83   1.0000      -0.241422        -6.5694
  84   1.0000      -0.238845        -6.4993
  85   1.0000      -0.194379        -5.2893
  86   1.0000      -0.191956        -5.2234
  87   1.0000      -0.191586        -5.2133
  88   1.0000      -0.190891        -5.1944
  89   1.0000      -0.184391        -5.0175
  90   1.0000      -0.184166        -5.0114
  91   1.0000      -0.178691        -4.8624
  92   1.0000      -0.149989        -4.0814
  93   1.0000      -0.149350        -4.0640
  94   1.0000      -0.143298        -3.8993
  95   1.0000      -0.142516        -3.8780
  96   1.0000      -0.141407        -3.8479
  97   1.0000      -0.096740        -2.6324
  98   1.0000      -0.095863        -2.6086
  99   1.0000      -0.089228        -2.4280
 100   1.0000      -0.084381        -2.2961
 101   1.0000      -0.082104        -2.2342
 102   1.0000      -0.080430        -2.1886
 103   1.0000      -0.071044        -1.9332
 104   1.0000      -0.045939        -1.2501
 105   1.0000      -0.038277        -1.0416
 106   1.0000      -0.037019        -1.0073
 107   1.0000      -0.034767        -0.9461
 108   1.0000      -0.031663        -0.8616
 109   1.0000      -0.012917        -0.3515
 110   1.0000      -0.004917        -0.1338
 111   1.0000      -0.002445        -0.0665
 112   1.0000       0.007387         0.2010
 113   1.0000       0.011704         0.3185
 114   1.0000       0.034144         0.9291
 115   1.0000       0.058897         1.6027
 116   0.0000       0.185062         5.0358
 117   0.0000       0.188984         5.1425
 118   0.0000       0.195596         5.3224
 119   0.0000       0.196146         5.3374
 120   0.0000       0.196553         5.3485

MULLIKEN ATOMIC CHARGES AND SPIN POPULATIONS
--------------------------------------------
   0 V :    0.449096    1.198806
   1 S :   -0.241279   -0.022684
   2 S :   -0.268540   -0.025441
   3 S :   -0.267627   -0.025559
   4 S :   -0.240803   -0.022459
   5 O :   -0.507070   -0.138765
   6 C :   -0.093943    0.007506
   7 C :   -0.136399    0.010282
   8 C :   -0.136147    0.010312
   9 C :   -0.094167    0.007536
  10 S :   -0.047964   -0.000091
  11 S :   -0.040805   -0.000222
  12 S :   -0.047971   -0.000154
  13 S :   -0.041165   -0.000224
  14 C :   -0.326479    0.000233
  15 C :   -0.349523    0.000319
  16 C :   -0.349990    0.000275
  17 C :   -0.326440    0.000261
  18 C :   -0.084542    0.000139
  19 H :    0.160435   -0.000102
  20 H :    0.101213    0.000004
  21 H :    0.045298    0.000038
  22 H :    0.078975    0.000013
  23 H :    0.098167    0.000038
  24 H :    0.134054   -0.000092
  25 C :   -0.084270    0.000137
  26 H :    0.098236    0.000043
  27 H :    0.134508   -0.000097
  28 H :    0.078623    0.000007
  29 H :    0.045207    0.000035
  30 H :    0.160110   -0.000109
  31 H :    0.101203    0.000013
Sum of atomic charges         :   -2.0000000

LOEWDIN ATOMIC CHARGES AND SPIN POPULATIONS
-------------------------------------------
   0 V :   -0.242396    1.152732
   1 S :    0.106173   -0.014832
   2 S :    0.068351   -0.017737
   3 S :    0.069354   -0.017799
   4 S :    0.106929   -0.014667
   5 O :   -0.351231   -0.124235
   6 C :   -0.552462    0.008334
   7 C :   -0.552805    0.011721
   8 C :   -0.552831    0.011672
   9 C :   -0.552126    0.008357
  10 S :    0.332918   -0.000888
  11 S :    0.337193   -0.001137
  12 S :    0.332967   -0.000929
  13 S :    0.337305   -0.001135
  14 C :   -0.296691    0.000179
  15 C :   -0.291707    0.000150
  16 C :   -0.291669    0.000134
  17 C :   -0.296709    0.000191
  18 C :   -0.185569   -0.000038
  19 H :    0.072104   -0.000024
  20 H :    0.046947   -0.000012
  21 H :    0.046726    0.000016
  22 H :    0.053541    0.000011
  23 H :    0.048955    0.000023
  24 H :    0.062141   -0.000034
  25 C :   -0.185464   -0.000041
  26 H :    0.048829    0.000026
  27 H :    0.062181   -0.000034
  28 H :    0.053532    0.000009
  29 H :    0.046709    0.000017
  30 H :    0.071883   -0.000024
  31 H :    0.046921   -0.000007

  Mayer bond orders larger than 0.100000
B(  0-V ,  1-S ) :   0.8141 B(  0-V ,  2-S ) :   0.7619 B(  0-V ,  3-S ) :   0.7636
B(  0-V ,  4-S ) :   0.8150 B(  0-V ,  5-O ) :   2.1071 B(  1-S ,  8-C ) :   1.1349
B(  2-S ,  6-C ) :   1.1365 B(  3-S ,  9-C ) :   1.1368 B(  4-S ,  7-C ) :   1.1346
B(  6-C ,  7-C ) :   1.5184 B(  6-C , 10-S ) :   0.9415 B(  7-C , 11-S ) :   0.9658
B(  8-C ,  9-C ) :   1.5189 B(  8-C , 13-S ) :   0.9654 B(  9-C , 12-S ) :   0.9421
B( 10-S , 16-C ) :   0.9904 B( 11-S , 14-C ) :   1.0168 B( 12-S , 15-C ) :   0.9909
B( 13-S , 17-C ) :   1.0168 B( 14-C , 18-C ) :   0.8779 B( 14-C , 23-H ) :   0.9711
B( 14-C , 24-H ) :   0.9729 B( 15-C , 25-C ) :   0.8778 B( 15-C , 30-H ) :   0.9760
B( 15-C , 31-H ) :   0.9670 B( 16-C , 18-C ) :   0.8778 B( 16-C , 19-H ) :   0.9761
B( 16-C , 20-H ) :   0.9668 B( 17-C , 25-C ) :   0.8778 B( 17-C , 26-H ) :   0.9711
B( 17-C , 27-H ) :   0.9728 B( 18-C , 21-H ) :   0.9525 B( 18-C , 22-H ) :   0.9737
B( 25-C , 28-H ) :   0.9738 B( 25-C , 29-H ) :   0.9526

FINAL SINGLE POINT ENERGY     -4592.720733484908

DIPOLE MOMENT
-------------
                                X             Y             Z
Electronic contribution:     24.55792      10.52546      -0.07378
Nuclear contribution   :    -27.36357     -11.72932       0.08349
                        -----------------------------------------
Total Dipole Moment    :     -2.80565      -1.20386       0.00971
                        -----------------------------------------
Magnitude (a.u.)       :      3.05304
Magnitude (Debye)      :      7.76020

Rotational constants in cm-1:     0.012766     0.002547     0.002431
Rotational constants in MHz :   382.708976    76.368105    72.868102

                             ****ORCA TERMINATED NORMALLY****
TOTAL RUN TIME: 0 days 0 hours 27 minutes 47 seconds 892 msec
