                         Program Version 5.0.4 -  RELEASE  -
|  1> ! nofrozencore ReducedPop printbasis
|  2> ! B3LYP TZVP
|  3>
|  4> %basis
|  5> newgto V "CP(PPP)" end
|  6> end
|  7>
|  8> %pal
|  9> nprocs 8
| 10> end
| 11>
| 12> % sym SymThresh 1e-2 end
| 13> * xyz -2 2
| 14> V -1.005488408276864 -0.26090426874981876 0.2510557266623895
| 15> S 0.04529538071762566 0.37939410221527325 2.3691646545843774
| 16> S -1.034129497696472 2.1506183737419855 -0.16656980987387432
| 17> S 0.2639009101971685 -2.351217851189618 0.35689005718761757
| 18> S -0.8458256802594917 -0.586323513828315 -2.172863004362352
| 19> O -2.500945712213415 -0.6491787458088119 0.6310130880246713
| 20> C -1.1897745550414587 2.1667572249120957 -1.93197280830454
| 21> C -1.113618421649794 1.0731674107981481 -2.733553601057243
| 22> C 0.8380391474044223 -1.1452614741258587 2.800902663562183
| 23> C 0.9255571971023175 -2.2365084415310936 1.9971358524770566
| 24> S -1.6420424578862032 3.7442370383600854 -2.6857350003588456
| 25> S -1.465707540349137 1.2829302893914354 -4.492665396341095
| 26> S 1.6322966004820223 -3.7478491519947807 2.688481098235364
| 27> S 1.4347829282498896 -1.2902573411393399 4.499694080513442
| 28> C -0.0040884549728277915 2.1993510656860185 -5.177854822985549
| 29> C 3.4501312150479326 -3.4091316141866748 2.843842479640852
| 30> C -0.15382135894358492 4.265183443878898 -3.664797439276842
| 31> C 3.2841951238558695 -1.3483910108176393 4.363779206851272
| 32> C -0.07397684928128724 3.722849153393353 -5.0905989629698585
| 33> H 0.7314952560872938 3.984112551408976 -3.0881847922273438
| 34> H -0.20638818737179332 5.360888264652624 -3.685115255626362
| 35> H 0.8239831279048407 4.143000042493005 -5.575355480543021
| 36> H -0.94073919326346 4.07857252654537 -5.662055487458712
| 37> H 0.04960678608411078 1.888409849314005 -6.228553427100892
| 38> H 0.8864590194601344 1.8182373534093677 -4.671083236330592
| 39> C 3.8910881614661674 -2.732115148809166 4.140066760325044
| 40> H 3.6432901876490567 -0.9338558964894882 5.313999561016722
| 41> H 3.57532586480527 -0.6577463967344852 3.567792645641734
| 42> H 3.6379025977256707 -3.3792174218534448 4.989577079469158
| 43> H 4.990217539705006 -2.6344832564751837 4.127946665210371
| 44> H 3.748469250060724 -2.8207701106357392 1.9719583312684952
| 45> H 3.9229835609602257 -4.39555251796897 2.7595485436575418
| 46> *
| 47>
| 48> % eprnmr
| 49> gtensor true
| 50> Nuclei = all H {aiso,adip,aorb,fgrad,rho}
| 51> Nuclei = all V {aiso,adip,aorb,fgrad,rho}
| 52> end
| 53>
| 54>                          ****END OF INPUT****

CARTESIAN COORDINATES (ANGSTROEM)
---------------------------------
  V     -1.006630   -0.261144    0.251275
  S      0.044154    0.379154    2.369384
  S     -1.035271    2.150378   -0.166351
  S      0.262760   -2.351458    0.357109
  S     -0.846967   -0.586564   -2.172644
  O     -2.502087   -0.649419    0.631232
  C     -1.190916    2.166517   -1.931754
  C     -1.114760    1.072927   -2.733335
  C      0.836898   -1.145502    2.801122
  C      0.924416   -2.236748    1.997355
  S     -1.643184    3.743997   -2.685516
  S     -1.466849    1.282690   -4.492447
  S      1.631155   -3.748089    2.688700
  S      1.433642   -1.290497    4.499913
  C     -0.005230    2.199111   -5.177636
  C      3.448990   -3.409372    2.844061
  C     -0.154963    4.264943   -3.664579
  C      3.283054   -1.348631    4.363998
  C     -0.075118    3.722609   -5.090380
  H      0.730354    3.983873   -3.087966
  H     -0.207530    5.360648   -3.684896
  H      0.822842    4.142760   -5.575137
  H     -0.941881    4.078332   -5.661837
  H      0.048465    1.888170   -6.228335
  H      0.885318    1.817997   -4.670864
  C      3.889947   -2.732355    4.140286
  H      3.642149   -0.934096    5.314218
  H      3.574184   -0.657986    3.568012
  H      3.636761   -3.379457    4.989796
  H      4.989076   -2.634723    4.128166
  H      3.747328   -2.821010    1.972177
  H      3.921842   -4.395793    2.759767

 Total Charge           Charge          ....   -2
 Multiplicity           Mult            ....    2
 Number of Electrons    NEL             ....  233
 Basis Dimension        Dim             ....  517

ORBITAL ENERGIES
----------------
                 SPIN UP ORBITALS
  NO   OCC          E(Eh)            E(eV)
   0   1.0000    -196.640739     -5350.8666
   1   1.0000     -88.671771     -2412.8816
   2   1.0000     -88.671706     -2412.8798
   3   1.0000     -88.671699     -2412.8796
   4   1.0000     -88.671680     -2412.8791
   5   1.0000     -88.613413     -2411.2935
   6   1.0000     -88.613395     -2411.2931
   7   1.0000     -88.613372     -2411.2924
   8   1.0000     -88.613365     -2411.2922
   9   1.0000     -22.016549      -599.1008
  10   1.0000     -18.859901      -513.2040
  11   1.0000     -18.523374      -504.0466
  12   1.0000     -18.517556      -503.8883
  13   1.0000     -18.517548      -503.8881
  14   1.0000     -10.014774      -272.5159
  15   1.0000     -10.014763      -272.5155
  16   1.0000     -10.014699      -272.5138
  17   1.0000     -10.014686      -272.5135
  18   1.0000     -10.005264      -272.2571
  19   1.0000     -10.005193      -272.2552
  20   1.0000      -9.991461      -271.8815
  21   1.0000      -9.991423      -271.8804
  22   1.0000      -9.990728      -271.8615
  23   1.0000      -9.990699      -271.8607
  24   1.0000      -7.725541      -210.2227
  25   1.0000      -7.725473      -210.2208
  26   1.0000      -7.725473      -210.2208
  27   1.0000      -7.725458      -210.2204
  28   1.0000      -7.667696      -208.6486
  29   1.0000      -7.667676      -208.6481
  30   1.0000      -7.667662      -208.6477
  31   1.0000      -7.667632      -208.6469
  32   1.0000      -5.690810      -154.8548
  33   1.0000      -5.690743      -154.8530
  34   1.0000      -5.690741      -154.8529
  35   1.0000      -5.690729      -154.8526
  36   1.0000      -5.686902      -154.7485
  37   1.0000      -5.686839      -154.7467
  38   1.0000      -5.686830      -154.7465
  39   1.0000      -5.686824      -154.7463
  40   1.0000      -5.680209      -154.5664
  41   1.0000      -5.680143      -154.5646
  42   1.0000      -5.680136      -154.5644
  43   1.0000      -5.680128      -154.5641
  44   1.0000      -5.632610      -153.2711
  45   1.0000      -5.632578      -153.2702
  46   1.0000      -5.632577      -153.2702
  47   1.0000      -5.632554      -153.2696
  48   1.0000      -5.626197      -153.0966
  49   1.0000      -5.626172      -153.0959
  50   1.0000      -5.626161      -153.0956
  51   1.0000      -5.626136      -153.0950
  52   1.0000      -5.625564      -153.0794
  53   1.0000      -5.625541      -153.0788
  54   1.0000      -5.625527      -153.0784
  55   1.0000      -5.625499      -153.0776
  56   1.0000      -2.410835       -65.6022
  57   1.0000      -1.453037       -39.5392
  58   1.0000      -1.440426       -39.1960
  59   1.0000      -1.439439       -39.1691
  60   1.0000      -0.642976       -17.4963
  61   1.0000      -0.642900       -17.4942
  62   1.0000      -0.620516       -16.8851
  63   1.0000      -0.594573       -16.1792
  64   1.0000      -0.594096       -16.1662
  65   1.0000      -0.568645       -15.4736
  66   1.0000      -0.568524       -15.4703
  67   1.0000      -0.490105       -13.3364
  68   1.0000      -0.487716       -13.2714
  69   1.0000      -0.486531       -13.2392
  70   1.0000      -0.484939       -13.1959
  71   1.0000      -0.422800       -11.5050
  72   1.0000      -0.419676       -11.4200
  73   1.0000      -0.414498       -11.2791
  74   1.0000      -0.408670       -11.1205
  75   1.0000      -0.374117       -10.1802
  76   1.0000      -0.370948       -10.0940
  77   1.0000      -0.293085        -7.9753
  78   1.0000      -0.292857        -7.9690
  79   1.0000      -0.276931        -7.5357
  80   1.0000      -0.276706        -7.5296
  81   1.0000      -0.258905        -7.0452
  82   1.0000      -0.253511        -6.8984
  83   1.0000      -0.239812        -6.5256
  84   1.0000      -0.236438        -6.4338
  85   1.0000      -0.194974        -5.3055
  86   1.0000      -0.191894        -5.2217
  87   1.0000      -0.189255        -5.1499
  88   1.0000      -0.187952        -5.1144
  89   1.0000      -0.184376        -5.0171
  90   1.0000      -0.183937        -5.0052
  91   1.0000      -0.183280        -4.9873
  92   1.0000      -0.150688        -4.1004
  93   1.0000      -0.147120        -4.0033
  94   1.0000      -0.141993        -3.8638
  95   1.0000      -0.140533        -3.8241
  96   1.0000      -0.139417        -3.7937
  97   1.0000      -0.098981        -2.6934
  98   1.0000      -0.092703        -2.5226
  99   1.0000      -0.089450        -2.4341
 100   1.0000      -0.084290        -2.2936
 101   1.0000      -0.081967        -2.2304
 102   1.0000      -0.078178        -2.1273
 103   1.0000      -0.069522        -1.8918
 104   1.0000      -0.049667        -1.3515
 105   1.0000      -0.041601        -1.1320
 106   1.0000      -0.041509        -1.1295
 107   1.0000      -0.036035        -0.9805
 108   1.0000      -0.024643        -0.6706
 109   1.0000      -0.010662        -0.2901
 110   1.0000      -0.010457        -0.2846
 111   1.0000       0.001035         0.0282
 112   1.0000       0.005757         0.1566
 113   1.0000       0.013756         0.3743
 114   1.0000       0.014235         0.3874
 115   1.0000       0.033882         0.9220
 116   1.0000       0.060743         1.6529
 117   0.0000       0.187596         5.1048
 118   0.0000       0.195401         5.3171
 119   0.0000       0.195859         5.3296
 120   0.0000       0.196738         5.3535
 121   0.0000       0.208548         5.6749

                 SPIN DOWN ORBITALS
  NO   OCC          E(Eh)            E(eV)
   0   1.0000    -196.640883     -5350.8705
   1   1.0000     -88.671780     -2412.8818
   2   1.0000     -88.671715     -2412.8800
   3   1.0000     -88.671707     -2412.8798
   4   1.0000     -88.671689     -2412.8793
   5   1.0000     -88.613573     -2411.2979
   6   1.0000     -88.613555     -2411.2974
   7   1.0000     -88.613532     -2411.2968
   8   1.0000     -88.613525     -2411.2966
   9   1.0000     -22.001811      -598.6997
  10   1.0000     -18.863564      -513.3037
  11   1.0000     -18.518219      -503.9064
  12   1.0000     -18.501835      -503.4605
  13   1.0000     -18.501493      -503.4512
  14   1.0000     -10.014771      -272.5158
  15   1.0000     -10.014760      -272.5155
  16   1.0000     -10.014695      -272.5137
  17   1.0000     -10.014683      -272.5134
  18   1.0000     -10.005263      -272.2570
  19   1.0000     -10.005192      -272.2551
  20   1.0000      -9.991203      -271.8744
  21   1.0000      -9.991164      -271.8734
  22   1.0000      -9.990471      -271.8545
  23   1.0000      -9.990441      -271.8537
  24   1.0000      -7.725550      -210.2229
  25   1.0000      -7.725482      -210.2211
  26   1.0000      -7.725482      -210.2210
  27   1.0000      -7.725467      -210.2206
  28   1.0000      -7.667845      -208.6527
  29   1.0000      -7.667826      -208.6521
  30   1.0000      -7.667811      -208.6517
  31   1.0000      -7.667782      -208.6510
  32   1.0000      -5.690820      -154.8551
  33   1.0000      -5.690753      -154.8533
  34   1.0000      -5.690751      -154.8532
  35   1.0000      -5.690739      -154.8529
  36   1.0000      -5.686916      -154.7489
  37   1.0000      -5.686852      -154.7471
  38   1.0000      -5.686844      -154.7469
  39   1.0000      -5.686838      -154.7467
  40   1.0000      -5.680220      -154.5667
  41   1.0000      -5.680154      -154.5649
  42   1.0000      -5.680147      -154.5647
  43   1.0000      -5.680139      -154.5644
  44   1.0000      -5.632778      -153.2757
  45   1.0000      -5.632746      -153.2748
  46   1.0000      -5.632744      -153.2747
  47   1.0000      -5.632721      -153.2741
  48   1.0000      -5.626594      -153.1074
  49   1.0000      -5.626567      -153.1067
  50   1.0000      -5.626559      -153.1064
  51   1.0000      -5.626534      -153.1058
  52   1.0000      -5.625696      -153.0830
  53   1.0000      -5.625676      -153.0824
  54   1.0000      -5.625659      -153.0820
  55   1.0000      -5.625632      -153.0812
  56   1.0000      -2.366472       -64.3950
  57   1.0000      -1.434154       -39.0253
  58   1.0000      -1.378582       -37.5131
  59   1.0000      -1.378369       -37.5073
  60   1.0000      -0.642927       -17.4949
  61   1.0000      -0.642846       -17.4927
  62   1.0000      -0.628349       -17.0983
  63   1.0000      -0.594393       -16.1742
  64   1.0000      -0.593896       -16.1607
  65   1.0000      -0.568626       -15.4731
  66   1.0000      -0.568506       -15.4698
  67   1.0000      -0.490094       -13.3361
  68   1.0000      -0.487721       -13.2716
  69   1.0000      -0.486530       -13.2391
  70   1.0000      -0.484954       -13.1963
  71   1.0000      -0.423016       -11.5109
  72   1.0000      -0.419955       -11.4275
  73   1.0000      -0.414529       -11.2799
  74   1.0000      -0.408786       -11.1236
  75   1.0000      -0.374093       -10.1796
  76   1.0000      -0.371008       -10.0956
  77   1.0000      -0.293055        -7.9744
  78   1.0000      -0.292848        -7.9688
  79   1.0000      -0.276903        -7.5349
  80   1.0000      -0.276687        -7.5290
  81   1.0000      -0.258686        -7.0392
  82   1.0000      -0.253452        -6.8968
  83   1.0000      -0.239709        -6.5228
  84   1.0000      -0.236349        -6.4314
  85   1.0000      -0.194473        -5.2919
  86   1.0000      -0.191809        -5.2194
  87   1.0000      -0.189207        -5.1486
  88   1.0000      -0.187923        -5.1137
  89   1.0000      -0.184143        -5.0108
  90   1.0000      -0.183875        -5.0035
  91   1.0000      -0.181205        -4.9308
  92   1.0000      -0.150116        -4.0849
  93   1.0000      -0.146845        -3.9959
  94   1.0000      -0.141549        -3.8517
  95   1.0000      -0.140449        -3.8218
  96   1.0000      -0.139189        -3.7875
  97   1.0000      -0.097548        -2.6544
  98   1.0000      -0.092439        -2.5154
  99   1.0000      -0.089910        -2.4466
 100   1.0000      -0.086095        -2.3428
 101   1.0000      -0.081836        -2.2269
 102   1.0000      -0.077842        -2.1182
 103   1.0000      -0.070686        -1.9235
 104   1.0000      -0.046983        -1.2785
 105   1.0000      -0.041771        -1.1367
 106   1.0000      -0.040072        -1.0904
 107   1.0000      -0.034354        -0.9348
 108   1.0000      -0.024359        -0.6629
 109   1.0000      -0.012008        -0.3268
 110   1.0000      -0.009428        -0.2565
 111   1.0000       0.000941         0.0256
 112   1.0000       0.006931         0.1886
 113   1.0000       0.014271         0.3883
 114   1.0000       0.033743         0.9182
 115   1.0000       0.059948         1.6313
 116   0.0000       0.185230         5.0404
 117   0.0000       0.189098         5.1456
 118   0.0000       0.195752         5.3267
 119   0.0000       0.196184         5.3384
 120   0.0000       0.197074         5.3627

MULLIKEN ATOMIC CHARGES AND SPIN POPULATIONS
--------------------------------------------
   0 V :    0.439834    1.207823
   1 S :   -0.259219   -0.026465
   2 S :   -0.259523   -0.026378
   3 S :   -0.259634   -0.026504
   4 S :   -0.260037   -0.026206
   5 O :   -0.481676   -0.142492
   6 C :   -0.111970    0.009485
   7 C :   -0.110101    0.009368
   8 C :   -0.110722    0.009446
   9 C :   -0.111031    0.009503
  10 S :   -0.047441    0.000361
  11 S :   -0.047429    0.000321
  12 S :   -0.047486    0.000336
  13 S :   -0.047598    0.000301
  14 C :   -0.331207    0.000066
  15 C :   -0.330545    0.000073
  16 C :   -0.330165    0.000052
  17 C :   -0.330033    0.000097
  18 C :   -0.100070    0.000267
  19 H :    0.143960   -0.000030
  20 H :    0.102125    0.000004
  21 H :    0.048413    0.000127
  22 H :    0.077441    0.000062
  23 H :    0.102143    0.000004
  24 H :    0.144339   -0.000032
  25 C :   -0.100253    0.000285
  26 H :    0.101896    0.000011
  27 H :    0.144110   -0.000037
  28 H :    0.077339    0.000053
  29 H :    0.048355    0.000121
  30 H :    0.144192   -0.000033
  31 H :    0.101993    0.000010
Sum of atomic charges         :   -2.0000000

LOEWDIN ATOMIC CHARGES AND SPIN POPULATIONS
-------------------------------------------
   0 V :   -0.227215    1.157411
   1 S :    0.085723   -0.017372
   2 S :    0.085643   -0.017268
   3 S :    0.085441   -0.017364
   4 S :    0.084996   -0.017200
   5 O :   -0.336319   -0.127281
   6 C :   -0.552928    0.010096
   7 C :   -0.552314    0.009982
   8 C :   -0.552219    0.010018
   9 C :   -0.552637    0.010087
  10 S :    0.332249   -0.000464
  11 S :    0.331966   -0.000491
  12 S :    0.332152   -0.000482
  13 S :    0.332107   -0.000505
  14 C :   -0.294575    0.000151
  15 C :   -0.294691    0.000160
  16 C :   -0.294706    0.000146
  17 C :   -0.294763    0.000169
  18 C :   -0.185833    0.000007
  19 H :    0.065237   -0.000003
  20 H :    0.047818    0.000003
  21 H :    0.047861    0.000064
  22 H :    0.052795    0.000032
  23 H :    0.047788    0.000003
  24 H :    0.065393   -0.000004
  25 C :   -0.185844    0.000002
  26 H :    0.047789    0.000008
  27 H :    0.065293   -0.000005
  28 H :    0.052816    0.000029
  29 H :    0.047850    0.000065
  30 H :    0.065334   -0.000003
  31 H :    0.047793    0.000007

  Mayer bond orders larger than 0.100000
B(  0-V ,  1-S ) :   0.7837 B(  0-V ,  2-S ) :   0.7859 B(  0-V ,  3-S ) :   0.7860
B(  0-V ,  4-S ) :   0.7823 B(  0-V ,  5-O ) :   2.1320 B(  1-S ,  8-C ) :   1.1462
B(  2-S ,  6-C ) :   1.1446 B(  3-S ,  9-C ) :   1.1447 B(  4-S ,  7-C ) :   1.1465
B(  6-C ,  7-C ) :   1.4932 B(  6-C , 10-S ) :   0.9514 B(  7-C , 11-S ) :   0.9502
B(  8-C ,  9-C ) :   1.4933 B(  8-C , 13-S ) :   0.9506 B(  9-C , 12-S ) :   0.9507
B( 10-S , 16-C ) :   0.9951 B( 11-S , 14-C ) :   0.9950 B( 12-S , 15-C ) :   0.9951
B( 13-S , 17-C ) :   0.9953 B( 14-C , 18-C ) :   0.8849 B( 14-C , 23-H ) :   0.9703
B( 14-C , 24-H ) :   0.9762 B( 15-C , 25-C ) :   0.8851 B( 15-C , 30-H ) :   0.9759
B( 15-C , 31-H ) :   0.9704 B( 16-C , 18-C ) :   0.8852 B( 16-C , 19-H ) :   0.9760
B( 16-C , 20-H ) :   0.9704 B( 17-C , 25-C ) :   0.8850 B( 17-C , 26-H ) :   0.9704
B( 17-C , 27-H ) :   0.9759 B( 18-C , 21-H ) :   0.9529 B( 18-C , 22-H ) :   0.9771
B( 25-C , 28-H ) :   0.9773 B( 25-C , 29-H ) :   0.9528

FINAL SINGLE POINT ENERGY     -4592.711436613707

DIPOLE MOMENT
-------------
                                X             Y             Z
Electronic contribution:    -25.13031      -6.52140       6.25037
Nuclear contribution   :     27.97677       7.26001      -6.95899
                        -----------------------------------------
Total Dipole Moment    :      2.84646       0.73861      -0.70862
                        -----------------------------------------
Magnitude (a.u.)       :      3.02490
Magnitude (Debye)      :      7.68868

Rotational constants in cm-1:     0.012973     0.002552     0.002443
Rotational constants in MHz :   388.911762    76.514146    73.235736

                             ****ORCA TERMINATED NORMALLY****
TOTAL RUN TIME: 0 days 0 hours 27 minutes 28 seconds 400 msec
