                         Program Version 5.0.4 -  RELEASE  -
|  1> ! nofrozencore ReducedPop printbasis
|  2> ! B3LYP TZVP
|  3>
|  4> %basis
|  5> newgto V "CP(PPP)" end
|  6> end
|  7>
|  8> %pal
|  9> nprocs 8
| 10> end
| 11>
| 12> % sym SymThresh 1e-2 end
| 13> * xyz -2 2
| 14> V 0.6732968682905621 0.8858416064004891 0.07862392455176716
| 15> S -0.23704474399998818 0.4239304827396431 2.319381850541457
| 16> S 2.032183985506583 -1.110114532994551 0.41204910761324187
| 17> S -1.6065250303764518 1.6914142880076544 -0.3783044637385339
| 18> S 0.6996956489965225 0.16536506295877723 -2.2513568573044958
| 19> O 1.633663717308796 2.155671854915733 0.1991527339605641
| 20> C 2.5205630535943486 -1.605195866132083 -1.2133973373370335
| 21> C 1.9607057911226216 -1.0709842302619164 -2.330214990967465
| 22> C -1.7124412229852548 1.4003185275938048 2.359954093685571
| 23> C -2.2803603688853165 1.9259192653849466 1.2416689844815039
| 24> S 3.8656244975873295 -2.8082468781892613 -1.2519707399963362
| 25> S 2.48185291257865 -1.4963846502776939 -4.005192258301114
| 26> S -3.867188565898724 2.7853388358921163 1.2948602100027313
| 27> S -2.505368034352742 1.5259395623794847 3.977628465554014
| 28> C 1.9368742552537856 -3.2555940965910772 -4.143045129276462
| 29> C -5.07464283287358 1.4601513249231381 1.7412715056607384
| 30> C 3.034004104842881 -4.294987107834885 -1.9643398299952266
| 31> C -4.025812964611789 0.49051951268797045 3.8080776453130514
| 32> C 2.80630823678837 -4.33654017745873 -3.4829590749443144
| 33> H 2.0917195508548616 -4.421032569329617 -1.4182550099679905
| 34> H 3.690879563294995 -5.1338033541723584 -1.6945861717723267
| 35> H 2.329245656974518 -5.311118457527076 -3.7077533758738004
| 36> H 3.7889659542804672 -4.3464797950037335 -3.982462667366111
| 37> H 1.910716628393944 -3.4520427194829693 -5.224043813330675
| 38> H 0.9058187594328789 -3.295341361455343 -3.7724246758266924
| 39> C -5.2259147672196855 1.244876408851896 3.2440105142938767
| 40> H -4.231042602084068 0.11927528628748502 4.821269484313101
| 41> H -3.7715804671880404 -0.3703991951691702 3.1772676631422905
| 42> H -5.328384414498086 2.2178729898662213 3.752357574572652
| 43> H -6.151438336272726 0.6683632394616816 3.4433949317666883
| 44> H -4.752040126873532 0.5371528779767072 1.2436226426871326
| 45> H -6.024019184428311 1.7756624440783346 1.2879383936094992
| 46> *
| 47>
| 48> % eprnmr
| 49> gtensor true
| 50> Nuclei = all H {aiso,adip,aorb,fgrad,rho}
| 51> Nuclei = all V {aiso,adip,aorb,fgrad,rho}
| 52> end
| 53>
| 54>                          ****END OF INPUT****

CARTESIAN COORDINATES (ANGSTROEM)
---------------------------------
  V      0.674067    0.886743    0.078669
  S     -0.236275    0.424832    2.319427
  S      2.032954   -1.109213    0.412094
  S     -1.605755    1.692316   -0.378259
  S      0.700466    0.166267   -2.251312
  O      1.634434    2.156574    0.199198
  C      2.521333   -1.604294   -1.213352
  C      1.961476   -1.070082   -2.330170
  C     -1.711671    1.401220    2.359999
  C     -2.279590    1.926821    1.241714
  S      3.866395   -2.807345   -1.251925
  S      2.482623   -1.495483   -4.005147
  S     -3.866419    2.786241    1.294906
  S     -2.504598    1.526841    3.977674
  C      1.937644   -3.254692   -4.143000
  C     -5.073873    1.461053    1.741317
  C      3.034774   -4.294085   -1.964295
  C     -4.025043    0.491421    3.808123
  C      2.807078   -4.335638   -3.482914
  H      2.092490   -4.420131   -1.418210
  H      3.691650   -5.132902   -1.694541
  H      2.330016   -5.310217   -3.707708
  H      3.789736   -4.345578   -3.982417
  H      1.911487   -3.451141   -5.223998
  H      0.906589   -3.294440   -3.772379
  C     -5.225145    1.245778    3.244056
  H     -4.230273    0.120177    4.821315
  H     -3.770810   -0.369497    3.177313
  H     -5.327614    2.218775    3.752403
  H     -6.150668    0.669265    3.443440
  H     -4.751270    0.538055    1.243668
  H     -6.023249    1.776564    1.287984

 Total Charge           Charge          ....   -2
 Multiplicity           Mult            ....    2
 Number of Electrons    NEL             ....  233
 Basis Dimension        Dim             ....  517

ORBITAL ENERGIES
----------------
                 SPIN UP ORBITALS
  NO   OCC          E(Eh)            E(eV)
   0   1.0000    -196.640001     -5350.8465
   1   1.0000     -88.678438     -2413.0630
   2   1.0000     -88.678362     -2413.0609
   3   1.0000     -88.674684     -2412.9608
   4   1.0000     -88.674660     -2412.9602
   5   1.0000     -88.612288     -2411.2630
   6   1.0000     -88.612279     -2411.2627
   7   1.0000     -88.611845     -2411.2509
   8   1.0000     -88.611787     -2411.2493
   9   1.0000     -22.015804      -599.0805
  10   1.0000     -18.857107      -513.1280
  11   1.0000     -18.522642      -504.0267
  12   1.0000     -18.516849      -503.8691
  13   1.0000     -18.516810      -503.8680
  14   1.0000     -10.018131      -272.6072
  15   1.0000     -10.018095      -272.6062
  16   1.0000     -10.014842      -272.5177
  17   1.0000     -10.014821      -272.5171
  18   1.0000     -10.008772      -272.3525
  19   1.0000     -10.003886      -272.2196
  20   1.0000      -9.992297      -271.9042
  21   1.0000      -9.991796      -271.8906
  22   1.0000      -9.991573      -271.8845
  23   1.0000      -9.991081      -271.8711
  24   1.0000      -7.731934      -210.3966
  25   1.0000      -7.731865      -210.3947
  26   1.0000      -7.728447      -210.3017
  27   1.0000      -7.728436      -210.3014
  28   1.0000      -7.666826      -208.6249
  29   1.0000      -7.666814      -208.6246
  30   1.0000      -7.666128      -208.6060
  31   1.0000      -7.666056      -208.6040
  32   1.0000      -5.697193      -155.0285
  33   1.0000      -5.697123      -155.0266
  34   1.0000      -5.693686      -154.9331
  35   1.0000      -5.693681      -154.9329
  36   1.0000      -5.693278      -154.9220
  37   1.0000      -5.693212      -154.9202
  38   1.0000      -5.689816      -154.8278
  39   1.0000      -5.689804      -154.8274
  40   1.0000      -5.686704      -154.7431
  41   1.0000      -5.686635      -154.7412
  42   1.0000      -5.683167      -154.6468
  43   1.0000      -5.683153      -154.6465
  44   1.0000      -5.631665      -153.2454
  45   1.0000      -5.631664      -153.2454
  46   1.0000      -5.630999      -153.2273
  47   1.0000      -5.630926      -153.2253
  48   1.0000      -5.625220      -153.0700
  49   1.0000      -5.625218      -153.0700
  50   1.0000      -5.624834      -153.0595
  51   1.0000      -5.624831      -153.0594
  52   1.0000      -5.624603      -153.0532
  53   1.0000      -5.624539      -153.0515
  54   1.0000      -5.624083      -153.0391
  55   1.0000      -5.624016      -153.0373
  56   1.0000      -2.409504       -65.5659
  57   1.0000      -1.450888       -39.4807
  58   1.0000      -1.439276       -39.1647
  59   1.0000      -1.438202       -39.1355
  60   1.0000      -0.644928       -17.5494
  61   1.0000      -0.641603       -17.4589
  62   1.0000      -0.618170       -16.8213
  63   1.0000      -0.593396       -16.1471
  64   1.0000      -0.592788       -16.1306
  65   1.0000      -0.577529       -15.7154
  66   1.0000      -0.572704       -15.5841
  67   1.0000      -0.492563       -13.4033
  68   1.0000      -0.488418       -13.2905
  69   1.0000      -0.487492       -13.2653
  70   1.0000      -0.484074       -13.1723
  71   1.0000      -0.423450       -11.5227
  72   1.0000      -0.418612       -11.3910
  73   1.0000      -0.412353       -11.2207
  74   1.0000      -0.407103       -11.0778
  75   1.0000      -0.377176       -10.2635
  76   1.0000      -0.371945       -10.1211
  77   1.0000      -0.293576        -7.9886
  78   1.0000      -0.292251        -7.9526
  79   1.0000      -0.279100        -7.5947
  80   1.0000      -0.272603        -7.4179
  81   1.0000      -0.260833        -7.0976
  82   1.0000      -0.254644        -6.9292
  83   1.0000      -0.242790        -6.6067
  84   1.0000      -0.236113        -6.4250
  85   1.0000      -0.196424        -5.3450
  86   1.0000      -0.192777        -5.2457
  87   1.0000      -0.191584        -5.2133
  88   1.0000      -0.190093        -5.1727
  89   1.0000      -0.185154        -5.0383
  90   1.0000      -0.182867        -4.9761
  91   1.0000      -0.180378        -4.9083
  92   1.0000      -0.150664        -4.0998
  93   1.0000      -0.150610        -4.0983
  94   1.0000      -0.143870        -3.9149
  95   1.0000      -0.142362        -3.8739
  96   1.0000      -0.141661        -3.8548
  97   1.0000      -0.097361        -2.6493
  98   1.0000      -0.096297        -2.6204
  99   1.0000      -0.089689        -2.4406
 100   1.0000      -0.083484        -2.2717
 101   1.0000      -0.081630        -2.2213
 102   1.0000      -0.079592        -2.1658
 103   1.0000      -0.069782        -1.8989
 104   1.0000      -0.050072        -1.3625
 105   1.0000      -0.038197        -1.0394
 106   1.0000      -0.038162        -1.0384
 107   1.0000      -0.035707        -0.9716
 108   1.0000      -0.031771        -0.8645
 109   1.0000      -0.013055        -0.3552
 110   1.0000      -0.004489        -0.1222
 111   1.0000      -0.002810        -0.0765
 112   1.0000       0.006093         0.1658
 113   1.0000       0.011118         0.3025
 114   1.0000       0.016297         0.4435
 115   1.0000       0.033504         0.9117
 116   1.0000       0.059616         1.6222
 117   0.0000       0.187792         5.1101
 118   0.0000       0.193229         5.2580
 119   0.0000       0.195494         5.3197
 120   0.0000       0.199510         5.4289
 121   0.0000       0.211537         5.7562

                 SPIN DOWN ORBITALS
  NO   OCC          E(Eh)            E(eV)
   0   1.0000    -196.640142     -5350.8503
   1   1.0000     -88.678451     -2413.0633
   2   1.0000     -88.678375     -2413.0613
   3   1.0000     -88.674697     -2412.9612
   4   1.0000     -88.674673     -2412.9605
   5   1.0000     -88.612446     -2411.2672
   6   1.0000     -88.612436     -2411.2670
   7   1.0000     -88.612004     -2411.2552
   8   1.0000     -88.611947     -2411.2537
   9   1.0000     -22.001141      -598.6815
  10   1.0000     -18.860690      -513.2255
  11   1.0000     -18.517514      -503.8872
  12   1.0000     -18.501362      -503.4477
  13   1.0000     -18.500682      -503.4292
  14   1.0000     -10.018129      -272.6071
  15   1.0000     -10.018092      -272.6061
  16   1.0000     -10.014837      -272.5176
  17   1.0000     -10.014817      -272.5170
  18   1.0000     -10.008772      -272.3525
  19   1.0000     -10.003885      -272.2196
  20   1.0000      -9.992038      -271.8972
  21   1.0000      -9.991545      -271.8838
  22   1.0000      -9.991316      -271.8775
  23   1.0000      -9.990832      -271.8644
  24   1.0000      -7.731949      -210.3970
  25   1.0000      -7.731879      -210.3951
  26   1.0000      -7.728461      -210.3021
  27   1.0000      -7.728450      -210.3018
  28   1.0000      -7.666973      -208.6289
  29   1.0000      -7.666960      -208.6286
  30   1.0000      -7.666276      -208.6100
  31   1.0000      -7.666204      -208.6080
  32   1.0000      -5.697210      -155.0290
  33   1.0000      -5.697140      -155.0271
  34   1.0000      -5.693702      -154.9335
  35   1.0000      -5.693697      -154.9334
  36   1.0000      -5.693299      -154.9225
  37   1.0000      -5.693232      -154.9207
  38   1.0000      -5.689835      -154.8283
  39   1.0000      -5.689824      -154.8280
  40   1.0000      -5.686721      -154.7435
  41   1.0000      -5.686651      -154.7416
  42   1.0000      -5.683184      -154.6473
  43   1.0000      -5.683170      -154.6469
  44   1.0000      -5.631839      -153.2501
  45   1.0000      -5.631837      -153.2501
  46   1.0000      -5.631166      -153.2318
  47   1.0000      -5.631094      -153.2298
  48   1.0000      -5.625599      -153.0803
  49   1.0000      -5.625597      -153.0803
  50   1.0000      -5.625002      -153.0641
  51   1.0000      -5.624970      -153.0632
  52   1.0000      -5.624966      -153.0631
  53   1.0000      -5.624940      -153.0624
  54   1.0000      -5.624211      -153.0426
  55   1.0000      -5.624145      -153.0408
  56   1.0000      -2.365338       -64.3641
  57   1.0000      -1.432066       -38.9685
  58   1.0000      -1.377900       -37.4946
  59   1.0000      -1.377241       -37.4766
  60   1.0000      -0.644881       -17.5481
  61   1.0000      -0.641546       -17.4574
  62   1.0000      -0.625843       -17.0301
  63   1.0000      -0.593206       -16.1419
  64   1.0000      -0.592584       -16.1250
  65   1.0000      -0.577526       -15.7153
  66   1.0000      -0.572695       -15.5838
  67   1.0000      -0.492588       -13.4040
  68   1.0000      -0.488415       -13.2905
  69   1.0000      -0.487526       -13.2663
  70   1.0000      -0.484100       -13.1730
  71   1.0000      -0.423698       -11.5294
  72   1.0000      -0.418906       -11.3990
  73   1.0000      -0.412363       -11.2210
  74   1.0000      -0.407191       -11.0802
  75   1.0000      -0.377163       -10.2631
  76   1.0000      -0.371939       -10.1210
  77   1.0000      -0.293558        -7.9881
  78   1.0000      -0.292238        -7.9522
  79   1.0000      -0.279071        -7.5939
  80   1.0000      -0.272587        -7.4175
  81   1.0000      -0.260638        -7.0923
  82   1.0000      -0.254590        -6.9278
  83   1.0000      -0.242710        -6.6045
  84   1.0000      -0.236023        -6.4225
  85   1.0000      -0.196087        -5.3358
  86   1.0000      -0.192717        -5.2441
  87   1.0000      -0.191489        -5.2107
  88   1.0000      -0.190079        -5.1723
  89   1.0000      -0.184802        -5.0287
  90   1.0000      -0.182802        -4.9743
  91   1.0000      -0.178496        -4.8571
  92   1.0000      -0.150357        -4.0914
  93   1.0000      -0.149961        -4.0807
  94   1.0000      -0.143598        -3.9075
  95   1.0000      -0.142138        -3.8678
  96   1.0000      -0.141538        -3.8514
  97   1.0000      -0.095826        -2.6075
  98   1.0000      -0.095797        -2.6068
  99   1.0000      -0.089801        -2.4436
 100   1.0000      -0.083484        -2.2717
 101   1.0000      -0.082432        -2.2431
 102   1.0000      -0.080236        -2.1833
 103   1.0000      -0.071082        -1.9342
 104   1.0000      -0.045953        -1.2505
 105   1.0000      -0.038473        -1.0469
 106   1.0000      -0.037346        -1.0162
 107   1.0000      -0.034669        -0.9434
 108   1.0000      -0.031692        -0.8624
 109   1.0000      -0.012136        -0.3302
 110   1.0000      -0.005690        -0.1548
 111   1.0000      -0.001919        -0.0522
 112   1.0000       0.006930         0.1886
 113   1.0000       0.012014         0.3269
 114   1.0000       0.033772         0.9190
 115   1.0000       0.058705         1.5975
 116   0.0000       0.185369         5.0441
 117   0.0000       0.188972         5.1422
 118   0.0000       0.193357         5.2615
 119   0.0000       0.196099         5.3361
 120   0.0000       0.199754         5.4356

MULLIKEN ATOMIC CHARGES AND SPIN POPULATIONS
--------------------------------------------
   0 V :    0.447872    1.198429
   1 S :   -0.258634   -0.025123
   2 S :   -0.249230   -0.022868
   3 S :   -0.258971   -0.025047
   4 S :   -0.249593   -0.022732
   5 O :   -0.506778   -0.138774
   6 C :   -0.116407    0.008711
   7 C :   -0.114492    0.008631
   8 C :   -0.115209    0.009224
   9 C :   -0.115470    0.009134
  10 S :   -0.041322   -0.000103
  11 S :   -0.041256   -0.000136
  12 S :   -0.046888   -0.000277
  13 S :   -0.046975   -0.000303
  14 C :   -0.333549    0.000201
  15 C :   -0.347035    0.000351
  16 C :   -0.332529    0.000189
  17 C :   -0.346280    0.000375
  18 C :   -0.068660    0.000110
  19 H :    0.142762   -0.000098
  20 H :    0.094797    0.000005
  21 H :    0.044332    0.000008
  22 H :    0.067636    0.000071
  23 H :    0.094688    0.000006
  24 H :    0.143282   -0.000099
  25 C :   -0.100736    0.000200
  26 H :    0.108204    0.000041
  27 H :    0.150845   -0.000100
  28 H :    0.092347   -0.000048
  29 H :    0.043783    0.000079
  30 H :    0.151091   -0.000095
  31 H :    0.108373    0.000039
Sum of atomic charges         :   -2.0000000

LOEWDIN ATOMIC CHARGES AND SPIN POPULATIONS
-------------------------------------------
   0 V :   -0.243683    1.152579
   1 S :    0.081818   -0.016918
   2 S :    0.093984   -0.015515
   3 S :    0.081620   -0.016837
   4 S :    0.093838   -0.015438
   5 O :   -0.350972   -0.124241
   6 C :   -0.552456    0.010201
   7 C :   -0.551899    0.010136
   8 C :   -0.551992    0.009793
   9 C :   -0.552409    0.009785
  10 S :    0.337700   -0.001017
  11 S :    0.337532   -0.001041
  12 S :    0.335344   -0.001026
  13 S :    0.335224   -0.001035
  14 C :   -0.296162    0.000115
  15 C :   -0.293862    0.000217
  16 C :   -0.296247    0.000110
  17 C :   -0.293873    0.000229
  18 C :   -0.181748   -0.000037
  19 H :    0.064147   -0.000032
  20 H :    0.048081   -0.000010
  21 H :    0.049803    0.000006
  22 H :    0.052480    0.000017
  23 H :    0.048077   -0.000009
  24 H :    0.064292   -0.000032
  25 C :   -0.191533   -0.000039
  26 H :    0.047245    0.000021
  27 H :    0.068732   -0.000022
  28 H :    0.056370    0.000007
  29 H :    0.044527    0.000035
  30 H :    0.068766   -0.000021
  31 H :    0.047256    0.000020

  Mayer bond orders larger than 0.100000
B(  0-V ,  1-S ) :   0.7796 B(  0-V ,  2-S ) :   0.7989 B(  0-V ,  3-S ) :   0.7819
B(  0-V ,  4-S ) :   0.7966 B(  0-V ,  5-O ) :   2.1079 B(  1-S ,  8-C ) :   1.1387
B(  2-S ,  6-C ) :   1.1360 B(  3-S ,  9-C ) :   1.1374 B(  4-S ,  7-C ) :   1.1370
B(  6-C ,  7-C ) :   1.5057 B(  6-C , 10-S ) :   0.9539 B(  7-C , 11-S ) :   0.9536
B(  8-C ,  9-C ) :   1.5276 B(  8-C , 13-S ) :   0.9522 B(  9-C , 12-S ) :   0.9526
B( 10-S , 16-C ) :   1.0180 B( 11-S , 14-C ) :   1.0179 B( 12-S , 15-C ) :   0.9922
B( 13-S , 17-C ) :   0.9924 B( 14-C , 18-C ) :   0.8805 B( 14-C , 23-H ) :   0.9683
B( 14-C , 24-H ) :   0.9747 B( 15-C , 25-C ) :   0.8701 B( 15-C , 30-H ) :   0.9777
B( 15-C , 31-H ) :   0.9698 B( 16-C , 18-C ) :   0.8806 B( 16-C , 19-H ) :   0.9746
B( 16-C , 20-H ) :   0.9683 B( 17-C , 25-C ) :   0.8702 B( 17-C , 26-H ) :   0.9699
B( 17-C , 27-H ) :   0.9776 B( 18-C , 21-H ) :   0.9536 B( 18-C , 22-H ) :   0.9735
B( 25-C , 28-H ) :   0.9739 B( 25-C , 29-H ) :   0.9481

FINAL SINGLE POINT ENERGY     -4592.720276492288

DIPOLE MOMENT
-------------
                                X             Y             Z
Electronic contribution:     15.93448      21.31943       2.01898
Nuclear contribution   :    -17.68925     -23.80500      -2.30915
                        -----------------------------------------
Total Dipole Moment    :     -1.75477      -2.48557      -0.29016
                        -----------------------------------------
Magnitude (a.u.)       :      3.05638
Magnitude (Debye)      :      7.76870

Rotational constants in cm-1:     0.012775     0.002548     0.002431
Rotational constants in MHz :   382.996947    76.393603    72.887644

                             ****ORCA TERMINATED NORMALLY****
TOTAL RUN TIME: 0 days 0 hours 27 minutes 43 seconds 758 msec
