                         Program Version 5.0.4 -  RELEASE  -
|  1> ! nofrozencore ReducedPop printbasis
|  2> ! B3LYP TZVP
|  3>
|  4> %basis
|  5> newgto V "CP(PPP)" end
|  6> end
|  7>
|  8> %pal
|  9> nprocs 8
| 10> end
| 11>
| 12> % sym SymThresh 1e-2 end
| 13> * xyz -2 2
| 14> V -0.13104351707989098 -1.0457096390378737 -0.3653139794048565
| 15> S -2.32407919228347 -0.21091331897627186 0.3038923205206518
| 16> S -0.34254730792281274 0.4610718120102167 -2.3003627192650398
| 17> S 0.36634829343821845 -1.135836940059814 2.020359209655417
| 18> S 2.2425267853608393 -0.45650829229762424 -0.6614562644519184
| 19> O -0.33225175250913414 -2.545426429686257 -0.87510400815862
| 20> C 1.1031489730553647 0.554842538762063 -2.726896141214946
| 21> C 2.1948149754666724 0.16800301546149027 -2.035252552934175
| 22> C -2.5225426598182064 -0.648012111884054 2.2722218027582284
| 23> C -1.4144124802538893 -1.0295925618665216 2.980297384664519
| 24> S 1.3474969008386173 1.4302781734179781 -4.576824773899089
| 25> S 4.05987533659202 0.47614287627600466 -2.852920462323554
| 26> S -1.34027256195833 -1.3891872419123703 4.502462884131924
| 27> S -3.984227089519032 -0.4814328825902513 2.8164020669456176
| 28> C 4.228341238151324 2.3073216040205775 -2.8519684305081006
| 29> C -1.7121360226569777 0.24117159285296483 5.305080859125534
| 30> C 2.136555302232693 3.0435111778444526 -4.181977659679476
| 31> C -3.804712916249924 0.9598971800091697 3.969778720864734
| 32> C 3.650675057801414 3.0283694444038796 -4.057507018052904
| 33> H 1.6817478872965301 3.4404506424855312 -3.2714216940675125
| 34> H 1.8616443448481044 3.7199705490758324 -5.000057871289643
| 35> H 3.970157229482709 4.082187627114221 -3.9769899862467266
| 36> H 4.094513699558385 2.6320130770949075 -4.977412633521667
| 37> H 5.304424343769981 2.51229618636684 -2.802364786336718
| 38> H 3.78584698396857 2.6942097689853814 -1.9310534140188398
| 39> C -3.189396584736249 0.6618295529237143 5.346415464825245
| 40> H -4.830955769488644 1.32151549852254 4.086689838120591
| 41> H -3.233529019754376 1.7125075461093064 3.42240300668682
| 42> H -3.7676955193115305 -0.1406962783840803 5.818528041397642
| 43> H -3.2921891654946744 1.551825580799396 5.986247213169708
| 44> H -1.0974255079003539 0.9763165340262057 4.781639275721006
| 45> H -1.3217919319306441 0.12354100519294726 6.320540465481094
| 46> *
| 47>
| 48> % eprnmr
| 49> gtensor true
| 50> Nuclei = all H {aiso,adip,aorb,fgrad,rho}
| 51> Nuclei = all V {aiso,adip,aorb,fgrad,rho}
| 52> end
| 53>
| 54>                          ****END OF INPUT****

CARTESIAN COORDINATES (ANGSTROEM)
---------------------------------
  V     -0.131144   -1.046803   -0.365766
  S     -2.324180   -0.212006    0.303441
  S     -0.342648    0.459979   -2.300814
  S      0.366248   -1.136930    2.019907
  S      2.242426   -0.457601   -0.661908
  O     -0.332352   -2.546519   -0.875556
  C      1.103049    0.553750   -2.727348
  C      2.194715    0.166910   -2.035704
  C     -2.522643   -0.649105    2.271770
  C     -1.414513   -1.030685    2.979846
  S      1.347397    1.429185   -4.577276
  S      4.059775    0.475050   -2.853372
  S     -1.340373   -1.390280    4.502011
  S     -3.984327   -0.482526    2.815950
  C      4.228241    2.306229   -2.852420
  C     -1.712236    0.240079    5.304629
  C      2.136455    3.042418   -4.182429
  C     -3.804813    0.958804    3.969327
  C      3.650575    3.027277   -4.057959
  H      1.681648    3.439358   -3.271873
  H      1.861544    3.718878   -5.000510
  H      3.970057    4.081095   -3.977442
  H      4.094413    2.630920   -4.977864
  H      5.304324    2.511203   -2.802817
  H      3.785747    2.693117   -1.931505
  C     -3.189497    0.660737    5.345964
  H     -4.831056    1.320423    4.086238
  H     -3.233629    1.711415    3.421951
  H     -3.767796   -0.141789    5.818076
  H     -3.292289    1.550733    5.985795
  H     -1.097526    0.975224    4.781188
  H     -1.321892    0.122448    6.320089

 Total Charge           Charge          ....   -2
 Multiplicity           Mult            ....    2
 Number of Electrons    NEL             ....  233
 Basis Dimension        Dim             ....  517

ORBITAL ENERGIES
----------------
                 SPIN UP ORBITALS
  NO   OCC          E(Eh)            E(eV)
   0   1.0000    -196.644626     -5350.9723
   1   1.0000     -88.686585     -2413.2847
   2   1.0000     -88.686416     -2413.2801
   3   1.0000     -88.654646     -2412.4156
   4   1.0000     -88.654537     -2412.4126
   5   1.0000     -88.616278     -2411.3715
   6   1.0000     -88.616273     -2411.3714
   7   1.0000     -88.608407     -2411.1573
   8   1.0000     -88.608281     -2411.1539
   9   1.0000     -22.020135      -599.1983
  10   1.0000     -18.860862      -513.2302
  11   1.0000     -18.526669      -504.1363
  12   1.0000     -18.521362      -503.9919
  13   1.0000     -18.521323      -503.9908
  14   1.0000     -10.024271      -272.7743
  15   1.0000     -10.024147      -272.7709
  16   1.0000     -10.016587      -272.5652
  17   1.0000     -10.002350      -272.1778
  18   1.0000     -10.002325      -272.1771
  19   1.0000      -9.998887      -272.0836
  20   1.0000      -9.998168      -272.0640
  21   1.0000      -9.989827      -271.8370
  22   1.0000      -9.975445      -271.4456
  23   1.0000      -9.974675      -271.4247
  24   1.0000      -7.745540      -210.7669
  25   1.0000      -7.745474      -210.7651
  26   1.0000      -7.706961      -209.7171
  27   1.0000      -7.706856      -209.7142
  28   1.0000      -7.671378      -208.7488
  29   1.0000      -7.671293      -208.7465
  30   1.0000      -7.667479      -208.6427
  31   1.0000      -7.667470      -208.6425
  32   1.0000      -5.710434      -155.3888
  33   1.0000      -5.710361      -155.3868
  34   1.0000      -5.705936      -155.2664
  35   1.0000      -5.705851      -155.2641
  36   1.0000      -5.700504      -155.1186
  37   1.0000      -5.700443      -155.1169
  38   1.0000      -5.671987      -154.3426
  39   1.0000      -5.671878      -154.3396
  40   1.0000      -5.668703      -154.2533
  41   1.0000      -5.668600      -154.2505
  42   1.0000      -5.661782      -154.0649
  43   1.0000      -5.661679      -154.0621
  44   1.0000      -5.634573      -153.3245
  45   1.0000      -5.634490      -153.3223
  46   1.0000      -5.633297      -153.2898
  47   1.0000      -5.633292      -153.2897
  48   1.0000      -5.629727      -153.1927
  49   1.0000      -5.629637      -153.1902
  50   1.0000      -5.629268      -153.1802
  51   1.0000      -5.629189      -153.1780
  52   1.0000      -5.625904      -153.0886
  53   1.0000      -5.625902      -153.0886
  54   1.0000      -5.625098      -153.0667
  55   1.0000      -5.625090      -153.0665
  56   1.0000      -2.413806       -65.6830
  57   1.0000      -1.454850       -39.5885
  58   1.0000      -1.443526       -39.2803
  59   1.0000      -1.442983       -39.2656
  60   1.0000      -0.678104       -18.4521
  61   1.0000      -0.636231       -17.3127
  62   1.0000      -0.621625       -16.9153
  63   1.0000      -0.615767       -16.7559
  64   1.0000      -0.615300       -16.7432
  65   1.0000      -0.610835       -16.6217
  66   1.0000      -0.559816       -15.2334
  67   1.0000      -0.532126       -14.4799
  68   1.0000      -0.502661       -13.6781
  69   1.0000      -0.482370       -13.1259
  70   1.0000      -0.473874       -12.8948
  71   1.0000      -0.418377       -11.3846
  72   1.0000      -0.407294       -11.0830
  73   1.0000      -0.404769       -11.0143
  74   1.0000      -0.395951       -10.7744
  75   1.0000      -0.384433       -10.4609
  76   1.0000      -0.366033        -9.9603
  77   1.0000      -0.304986        -8.2991
  78   1.0000      -0.292511        -7.9596
  79   1.0000      -0.282389        -7.6842
  80   1.0000      -0.279443        -7.6040
  81   1.0000      -0.261317        -7.1108
  82   1.0000      -0.255398        -6.9497
  83   1.0000      -0.237191        -6.4543
  84   1.0000      -0.222281        -6.0486
  85   1.0000      -0.209758        -5.7078
  86   1.0000      -0.205960        -5.6045
  87   1.0000      -0.201069        -5.4714
  88   1.0000      -0.196471        -5.3463
  89   1.0000      -0.181899        -4.9497
  90   1.0000      -0.180482        -4.9112
  91   1.0000      -0.170316        -4.6345
  92   1.0000      -0.163980        -4.4621
  93   1.0000      -0.159145        -4.3306
  94   1.0000      -0.154310        -4.1990
  95   1.0000      -0.146417        -3.9842
  96   1.0000      -0.146048        -3.9742
  97   1.0000      -0.102333        -2.7846
  98   1.0000      -0.100881        -2.7451
  99   1.0000      -0.097198        -2.6449
 100   1.0000      -0.084448        -2.2980
 101   1.0000      -0.080956        -2.2029
 102   1.0000      -0.075475        -2.0538
 103   1.0000      -0.065165        -1.7732
 104   1.0000      -0.046262        -1.2589
 105   1.0000      -0.043948        -1.1959
 106   1.0000      -0.035148        -0.9564
 107   1.0000      -0.033019        -0.8985
 108   1.0000      -0.027703        -0.7538
 109   1.0000      -0.018118        -0.4930
 110   1.0000      -0.005963        -0.1623
 111   1.0000      -0.002508        -0.0682
 112   1.0000       0.013611         0.3704
 113   1.0000       0.014166         0.3855
 114   1.0000       0.016760         0.4561
 115   1.0000       0.025136         0.6840
 116   1.0000       0.076026         2.0688
 117   0.0000       0.158191         4.3046
 118   0.0000       0.183338         4.9889
 119   0.0000       0.192036         5.2256
 120   0.0000       0.203086         5.5263
 121   0.0000       0.206806         5.6275

                 SPIN DOWN ORBITALS
  NO   OCC          E(Eh)            E(eV)
   0   1.0000    -196.644761     -5350.9760
   1   1.0000     -88.686573     -2413.2843
   2   1.0000     -88.686403     -2413.2797
   3   1.0000     -88.654688     -2412.4167
   4   1.0000     -88.654579     -2412.4137
   5   1.0000     -88.616499     -2411.3775
   6   1.0000     -88.616494     -2411.3774
   7   1.0000     -88.608534     -2411.1608
   8   1.0000     -88.608408     -2411.1574
   9   1.0000     -22.005603      -598.8029
  10   1.0000     -18.864422      -513.3270
  11   1.0000     -18.521535      -503.9966
  12   1.0000     -18.505934      -503.5721
  13   1.0000     -18.505469      -503.5594
  14   1.0000     -10.024264      -272.7741
  15   1.0000     -10.024140      -272.7707
  16   1.0000     -10.016571      -272.5648
  17   1.0000     -10.002347      -272.1777
  18   1.0000     -10.002321      -272.1770
  19   1.0000      -9.998395      -272.0702
  20   1.0000      -9.997678      -272.0507
  21   1.0000      -9.989828      -271.8370
  22   1.0000      -9.975271      -271.4409
  23   1.0000      -9.974503      -271.4200
  24   1.0000      -7.745528      -210.7665
  25   1.0000      -7.745462      -210.7647
  26   1.0000      -7.707004      -209.7182
  27   1.0000      -7.706899      -209.7154
  28   1.0000      -7.671498      -208.7521
  29   1.0000      -7.671414      -208.7498
  30   1.0000      -7.667684      -208.6483
  31   1.0000      -7.667675      -208.6480
  32   1.0000      -5.710431      -155.3887
  33   1.0000      -5.710359      -155.3868
  34   1.0000      -5.705936      -155.2664
  35   1.0000      -5.705851      -155.2641
  36   1.0000      -5.700450      -155.1171
  37   1.0000      -5.700387      -155.1154
  38   1.0000      -5.672045      -154.3442
  39   1.0000      -5.671936      -154.3412
  40   1.0000      -5.668780      -154.2553
  41   1.0000      -5.668677      -154.2525
  42   1.0000      -5.661824      -154.0661
  43   1.0000      -5.661721      -154.0633
  44   1.0000      -5.634698      -153.3279
  45   1.0000      -5.634615      -153.3257
  46   1.0000      -5.633630      -153.2989
  47   1.0000      -5.633625      -153.2987
  48   1.0000      -5.630017      -153.2005
  49   1.0000      -5.629923      -153.1980
  50   1.0000      -5.629405      -153.1839
  51   1.0000      -5.629329      -153.1818
  52   1.0000      -5.626382      -153.1016
  53   1.0000      -5.626379      -153.1016
  54   1.0000      -5.625263      -153.0712
  55   1.0000      -5.625255      -153.0710
  56   1.0000      -2.369987       -64.4906
  57   1.0000      -1.435971       -39.0748
  58   1.0000      -1.382999       -37.6333
  59   1.0000      -1.382395       -37.6169
  60   1.0000      -0.677707       -18.4414
  61   1.0000      -0.636342       -17.3157
  62   1.0000      -0.628999       -17.1159
  63   1.0000      -0.615872       -16.7587
  64   1.0000      -0.615080       -16.7372
  65   1.0000      -0.610542       -16.6137
  66   1.0000      -0.559906       -15.2358
  67   1.0000      -0.532225       -14.4826
  68   1.0000      -0.502500       -13.6737
  69   1.0000      -0.482517       -13.1300
  70   1.0000      -0.473599       -12.8873
  71   1.0000      -0.418600       -11.3907
  72   1.0000      -0.407571       -11.0906
  73   1.0000      -0.405460       -11.0331
  74   1.0000      -0.395993       -10.7755
  75   1.0000      -0.384304       -10.4574
  76   1.0000      -0.366095        -9.9619
  77   1.0000      -0.304866        -8.2958
  78   1.0000      -0.292433        -7.9575
  79   1.0000      -0.282027        -7.6744
  80   1.0000      -0.279455        -7.6044
  81   1.0000      -0.261320        -7.1109
  82   1.0000      -0.255339        -6.9481
  83   1.0000      -0.237190        -6.4543
  84   1.0000      -0.222005        -6.0411
  85   1.0000      -0.209366        -5.6971
  86   1.0000      -0.205671        -5.5966
  87   1.0000      -0.200999        -5.4695
  88   1.0000      -0.195491        -5.3196
  89   1.0000      -0.180531        -4.9125
  90   1.0000      -0.180452        -4.9104
  91   1.0000      -0.170201        -4.6314
  92   1.0000      -0.163636        -4.4528
  93   1.0000      -0.158446        -4.3115
  94   1.0000      -0.154064        -4.1923
  95   1.0000      -0.146124        -3.9762
  96   1.0000      -0.145780        -3.9669
  97   1.0000      -0.101804        -2.7702
  98   1.0000      -0.099895        -2.7183
  99   1.0000      -0.096365        -2.6222
 100   1.0000      -0.086199        -2.3456
 101   1.0000      -0.082437        -2.2432
 102   1.0000      -0.075503        -2.0545
 103   1.0000      -0.064214        -1.7474
 104   1.0000      -0.044042        -1.1985
 105   1.0000      -0.043106        -1.1730
 106   1.0000      -0.034977        -0.9518
 107   1.0000      -0.033008        -0.8982
 108   1.0000      -0.025475        -0.6932
 109   1.0000      -0.017217        -0.4685
 110   1.0000      -0.003896        -0.1060
 111   1.0000      -0.000774        -0.0211
 112   1.0000       0.012960         0.3526
 113   1.0000       0.017043         0.4638
 114   1.0000       0.024530         0.6675
 115   1.0000       0.075598         2.0571
 116   0.0000       0.158636         4.3167
 117   0.0000       0.166255         4.5240
 118   0.0000       0.189303         5.1512
 119   0.0000       0.192197         5.2299
 120   0.0000       0.208035         5.6609

MULLIKEN ATOMIC CHARGES AND SPIN POPULATIONS
--------------------------------------------
   0 V :    0.423544    1.190722
   1 S :   -0.301691   -0.036363
   2 S :   -0.166289   -0.017541
   3 S :   -0.302358   -0.036368
   4 S :   -0.166472   -0.017482
   5 O :   -0.501869   -0.138110
   6 C :   -0.106060    0.003270
   7 C :   -0.104180    0.003384
   8 C :   -0.145435    0.021665
   9 C :   -0.145542    0.021860
  10 S :   -0.142136   -0.004901
  11 S :   -0.141655   -0.004927
  12 S :    0.044099    0.006396
  13 S :    0.042933    0.006249
  14 C :   -0.316108    0.000620
  15 C :   -0.343862    0.000681
  16 C :   -0.316125    0.000607
  17 C :   -0.343130    0.000724
  18 C :   -0.060727   -0.000142
  19 H :    0.134357   -0.000277
  20 H :    0.095633    0.000001
  21 H :    0.030862   -0.000009
  22 H :    0.072126   -0.000095
  23 H :    0.095714    0.000002
  24 H :    0.134668   -0.000280
  25 C :   -0.112701   -0.001220
  26 H :    0.102625   -0.000046
  27 H :    0.150541    0.000135
  28 H :    0.080109    0.000605
  29 H :    0.055348    0.000739
  30 H :    0.150635    0.000149
  31 H :    0.103146   -0.000048
Sum of atomic charges         :   -2.0000000

LOEWDIN ATOMIC CHARGES AND SPIN POPULATIONS
-------------------------------------------
   0 V :   -0.244357    1.143730
   1 S :   -0.018299   -0.026551
   2 S :    0.241438   -0.011224
   3 S :   -0.018555   -0.026531
   4 S :    0.241433   -0.011196
   5 O :   -0.349315   -0.123306
   6 C :   -0.571279    0.005109
   7 C :   -0.571463    0.005137
   8 C :   -0.556932    0.022114
   9 C :   -0.558560    0.022247
  10 S :    0.200285   -0.005168
  11 S :    0.200917   -0.005187
  12 S :    0.456898    0.004592
  13 S :    0.455567    0.004485
  14 C :   -0.306879    0.000113
  15 C :   -0.282514    0.000459
  16 C :   -0.306862    0.000110
  17 C :   -0.282387    0.000470
  18 C :   -0.188991   -0.000083
  19 H :    0.060518   -0.000142
  20 H :    0.045365   -0.000051
  21 H :    0.043220   -0.000018
  22 H :    0.051782   -0.000027
  23 H :    0.045408   -0.000049
  24 H :    0.060796   -0.000143
  25 C :   -0.179948    0.000437
  26 H :    0.047324   -0.000012
  27 H :    0.067588    0.000093
  28 H :    0.053671    0.000228
  29 H :    0.048995    0.000278
  30 H :    0.067733    0.000098
  31 H :    0.047402   -0.000012

  Mayer bond orders larger than 0.100000
B(  0-V ,  1-S ) :   0.8087 B(  0-V ,  2-S ) :   0.7676 B(  0-V ,  3-S ) :   0.8109
B(  0-V ,  4-S ) :   0.7651 B(  0-V ,  5-O ) :   2.1050 B(  1-S ,  8-C ) :   0.9387
B(  2-S ,  6-C ) :   1.3769 B(  3-S ,  9-C ) :   0.9370 B(  4-S ,  7-C ) :   1.3776
B(  6-C ,  7-C ) :   1.4616 B(  6-C , 10-S ) :   0.7686 B(  7-C , 11-S ) :   0.7695
B(  8-C ,  9-C ) :   1.5716 B(  8-C , 13-S ) :   1.1629 B(  9-C , 12-S ) :   1.1661
B( 10-S , 16-C ) :   1.0594 B( 11-S , 14-C ) :   1.0584 B( 12-S , 15-C ) :   0.9304
B( 13-S , 17-C ) :   0.9325 B( 14-C , 18-C ) :   0.8793 B( 14-C , 23-H ) :   0.9697
B( 14-C , 24-H ) :   0.9786 B( 15-C , 25-C ) :   0.8831 B( 15-C , 30-H ) :   0.9714
B( 15-C , 31-H ) :   0.9678 B( 16-C , 18-C ) :   0.8790 B( 16-C , 19-H ) :   0.9782
B( 16-C , 20-H ) :   0.9700 B( 17-C , 25-C ) :   0.8827 B( 17-C , 26-H ) :   0.9683
B( 17-C , 27-H ) :   0.9709 B( 18-C , 21-H ) :   0.9518 B( 18-C , 22-H ) :   0.9695
B( 25-C , 28-H ) :   0.9761 B( 25-C , 29-H ) :   0.9531

FINAL SINGLE POINT ENERGY     -4592.547822611277

DIPOLE MOMENT
-------------
                                X             Y             Z
Electronic contribution:     -4.16645     -25.49891      -7.35128
Nuclear contribution   :      3.55931      27.93171       9.62879
                        -----------------------------------------
Total Dipole Moment    :     -0.60714       2.43280       2.27751
                        -----------------------------------------
Magnitude (a.u.)       :      3.38736
Magnitude (Debye)      :      8.60997

Rotational constants in cm-1:     0.012770     0.002547     0.002430
Rotational constants in MHz :   382.827128    76.362414    72.850235

                             ****ORCA TERMINATED NORMALLY****
TOTAL RUN TIME: 0 days 0 hours 27 minutes 59 seconds 822 msec
