                         Program Version 5.0.4 -  RELEASE  -
|  1> ! nofrozencore ReducedPop printbasis
|  2> ! B3LYP TZVP
|  3>
|  4> %basis
|  5> newgto V "CP(PPP)" end
|  6> end
|  7>
|  8> %pal
|  9> nprocs 8
| 10> end
| 11>
| 12> % sym SymThresh 1e-2 end
| 13> * xyz -2 2
| 14> V 0.11405356118346514 -1.085424374437033 0.23014462476743835
| 15> S 0.2862743353598147 0.14466788434908773 2.3428480090177115
| 16> S -2.2727738377558278 -0.5429105447025734 0.31254664194868836
| 17> S 2.346700738573371 -0.15958014879824742 -0.16541866384034515
| 18> S -0.21046007619823026 -0.8778676247308573 -2.1903267156817123
| 19> O 0.27881801676752627 -2.6377691916625206 0.5653440247777259
| 20> C -2.8263845169398545 -0.7841585523587897 -1.3495368004164376
| 21> C -1.9659617003996306 -0.9220360450846214 -2.392746063671719
| 22> C 2.009704413959825 0.5214203122757884 2.4786862935552403
| 23> C 2.8646040131379182 0.3977511217017721 1.4290073124596379
| 24> S -4.618246530208491 -0.8020173415856887 -1.5548709310479962
| 25> S -2.52640688388966 -1.1323974934439773 -4.09527554815091
| 26> S 4.620707378789995 0.8181501609284886 1.5492507363617343
| 27> S 2.5284337956042564 1.122173620330358 4.0931965427498005
| 28> C -3.310379553891472 0.49703520691055836 -4.477828451540175
| 29> C 4.583899001251188 2.665437083956671 1.809435681814064
| 30> C -4.944676618925811 0.754157017595848 -2.4918733297514017
| 31> C 2.9184102963868175 2.879313542019915 3.7761445899152406
| 32> C -4.749447856088402 0.6798753909484797 -4.009614114059972
| 33> H -4.318722851459063 1.5380214411808009 -2.059454378564
| 34> H -5.989019576707072 1.0105565553025575 -2.2857899878397547
| 35> H -5.141981982999995 1.6202056444583224 -4.430038598061403
| 36> H -5.360819151259193 -0.1318407085969939 -4.4185557077954
| 37> H -3.255813683174401 0.5631836978861795 -5.568986118858944
| 38> H -2.654927844034509 1.2648897611262737 -4.061785345262991
| 39> C 4.365441976497006 3.148415703786354 3.17727200881045
| 40> H 3.000404790013637 3.5926767847018706 4.657259154401703
| 41> H 2.217112962441136 3.3886375797989756 3.092715020756785
| 42> H 5.190272903181908 2.695099449360003 3.7507850534702816
| 43> H 4.341827679868471 4.265765359615453 3.4178062385540264
| 44> H 3.829877710255583 2.9412890035670003 1.0622161290468615
| 45> H 5.591205374530226 2.7571040021067112 1.3038154553660861
| 46> *
| 47>
| 48> % eprnmr
| 49> gtensor true
| 50> Nuclei = all H {aiso,adip,aorb,fgrad,rho}
| 51> Nuclei = all V {aiso,adip,aorb,fgrad,rho}
| 52> end
| 53>
| 54>                          ****END OF INPUT****

CARTESIAN COORDINATES (ANGSTROEM)
---------------------------------
  V      0.114108   -1.086593    0.230345
  S      0.286329    0.143499    2.343048
  S     -2.272719   -0.544079    0.312747
  S      2.346755   -0.160749   -0.165219
  S     -0.210406   -0.879036   -2.190127
  O      0.278872   -2.638938    0.565544
  C     -2.826330   -0.785327   -1.349337
  C     -1.965907   -0.923205   -2.392546
  C      2.009759    0.520252    2.478886
  C      2.864658    0.396583    1.429207
  S     -4.618192   -0.803186   -1.554671
  S     -2.526352   -1.133566   -4.095076
  S      4.620762    0.816982    1.549451
  S      2.528488    1.121005    4.093396
  C     -3.310325    0.495867   -4.477628
  C      4.583953    2.664269    1.809636
  C     -4.944622    0.752989   -2.491673
  C      2.918465    2.878145    3.776345
  C     -4.749393    0.678707   -4.009414
  H     -4.318668    1.536853   -2.059254
  H     -5.988965    1.009388   -2.285590
  H     -5.141928    1.619037   -4.429839
  H     -5.360765   -0.133009   -4.418356
  H     -3.255759    0.562015   -5.568786
  H     -2.654873    1.263721   -4.061585
  C      4.365496    3.147247    3.177472
  H      3.000459    3.591508    4.657459
  H      2.217167    3.387469    3.092915
  H      5.190327    2.693931    3.750985
  H      4.341882    4.264597    3.418006
  H      3.829932    2.940121    1.062416
  H      5.591260    2.755936    1.304015

 Total Charge           Charge          ....   -2
 Multiplicity           Mult            ....    2
 Number of Electrons    NEL             ....  233
 Basis Dimension        Dim             ....  517

ORBITAL ENERGIES
----------------
                 SPIN UP ORBITALS
  NO   OCC          E(Eh)            E(eV)
   0   1.0000    -196.640871     -5350.8701
   1   1.0000     -88.680049     -2413.1068
   2   1.0000     -88.677431     -2413.0356
   3   1.0000     -88.676948     -2413.0224
   4   1.0000     -88.676840     -2413.0195
   5   1.0000     -88.614245     -2411.3162
   6   1.0000     -88.612592     -2411.2712
   7   1.0000     -88.612417     -2411.2664
   8   1.0000     -88.611914     -2411.2528
   9   1.0000     -22.016677      -599.1042
  10   1.0000     -18.857926      -513.1503
  11   1.0000     -18.523500      -504.0501
  12   1.0000     -18.517728      -503.8930
  13   1.0000     -18.517691      -503.8920
  14   1.0000     -10.024988      -272.7938
  15   1.0000     -10.016599      -272.5655
  16   1.0000     -10.015972      -272.5485
  17   1.0000     -10.015502      -272.5357
  18   1.0000     -10.010103      -272.3888
  19   1.0000     -10.004991      -272.2497
  20   1.0000      -9.993061      -271.9250
  21   1.0000      -9.992297      -271.9042
  22   1.0000      -9.992076      -271.8982
  23   1.0000      -9.991563      -271.8843
  24   1.0000      -7.733600      -210.4419
  25   1.0000      -7.731073      -210.3732
  26   1.0000      -7.730597      -210.3602
  27   1.0000      -7.730494      -210.3574
  28   1.0000      -7.668633      -208.6741
  29   1.0000      -7.667045      -208.6309
  30   1.0000      -7.666843      -208.6254
  31   1.0000      -7.666368      -208.6125
  32   1.0000      -5.698932      -155.0758
  33   1.0000      -5.696307      -155.0044
  34   1.0000      -5.695845      -154.9918
  35   1.0000      -5.695735      -154.9888
  36   1.0000      -5.694949      -154.9674
  37   1.0000      -5.692374      -154.8974
  38   1.0000      -5.691952      -154.8859
  39   1.0000      -5.691844      -154.8829
  40   1.0000      -5.688272      -154.7858
  41   1.0000      -5.685841      -154.7196
  42   1.0000      -5.685340      -154.7060
  43   1.0000      -5.685248      -154.7035
  44   1.0000      -5.633481      -153.2948
  45   1.0000      -5.631883      -153.2513
  46   1.0000      -5.631680      -153.2458
  47   1.0000      -5.631215      -153.2331
  48   1.0000      -5.627053      -153.1199
  49   1.0000      -5.626653      -153.1090
  50   1.0000      -5.625480      -153.0771
  51   1.0000      -5.625291      -153.0720
  52   1.0000      -5.625029      -153.0648
  53   1.0000      -5.624828      -153.0593
  54   1.0000      -5.624790      -153.0583
  55   1.0000      -5.624334      -153.0459
  56   1.0000      -2.410362       -65.5893
  57   1.0000      -1.451716       -39.5032
  58   1.0000      -1.440147       -39.1884
  59   1.0000      -1.439062       -39.1589
  60   1.0000      -0.645302       -17.5596
  61   1.0000      -0.644131       -17.5277
  62   1.0000      -0.618949       -16.8425
  63   1.0000      -0.594951       -16.1894
  64   1.0000      -0.594027       -16.1643
  65   1.0000      -0.576947       -15.6995
  66   1.0000      -0.576151       -15.6779
  67   1.0000      -0.493730       -13.4351
  68   1.0000      -0.490801       -13.3554
  69   1.0000      -0.487623       -13.2689
  70   1.0000      -0.485709       -13.2168
  71   1.0000      -0.424305       -11.5459
  72   1.0000      -0.421221       -11.4620
  73   1.0000      -0.412401       -11.2220
  74   1.0000      -0.406679       -11.0663
  75   1.0000      -0.376022       -10.2321
  76   1.0000      -0.372660       -10.1406
  77   1.0000      -0.293160        -7.9773
  78   1.0000      -0.291164        -7.9230
  79   1.0000      -0.283529        -7.7152
  80   1.0000      -0.278038        -7.5658
  81   1.0000      -0.260590        -7.0910
  82   1.0000      -0.256073        -6.9681
  83   1.0000      -0.241365        -6.5679
  84   1.0000      -0.233184        -6.3453
  85   1.0000      -0.197857        -5.3840
  86   1.0000      -0.194582        -5.2948
  87   1.0000      -0.192546        -5.2394
  88   1.0000      -0.190979        -5.1968
  89   1.0000      -0.184883        -5.0309
  90   1.0000      -0.181750        -4.9457
  91   1.0000      -0.168536        -4.5861
  92   1.0000      -0.151723        -4.1286
  93   1.0000      -0.149966        -4.0808
  94   1.0000      -0.144848        -3.9415
  95   1.0000      -0.143256        -3.8982
  96   1.0000      -0.139716        -3.8019
  97   1.0000      -0.098006        -2.6669
  98   1.0000      -0.096710        -2.6316
  99   1.0000      -0.089710        -2.4411
 100   1.0000      -0.083966        -2.2848
 101   1.0000      -0.081207        -2.2097
 102   1.0000      -0.080907        -2.2016
 103   1.0000      -0.070269        -1.9121
 104   1.0000      -0.050718        -1.3801
 105   1.0000      -0.039213        -1.0670
 106   1.0000      -0.038410        -1.0452
 107   1.0000      -0.036503        -0.9933
 108   1.0000      -0.032536        -0.8854
 109   1.0000      -0.013909        -0.3785
 110   1.0000      -0.005072        -0.1380
 111   1.0000      -0.003954        -0.1076
 112   1.0000       0.005382         0.1465
 113   1.0000       0.009881         0.2689
 114   1.0000       0.015511         0.4221
 115   1.0000       0.032900         0.8953
 116   1.0000       0.059046         1.6067
 117   0.0000       0.181329         4.9342
 118   0.0000       0.191649         5.2150
 119   0.0000       0.196190         5.3386
 120   0.0000       0.197195         5.3659
 121   0.0000       0.210647         5.7320

                 SPIN DOWN ORBITALS
  NO   OCC          E(Eh)            E(eV)
   0   1.0000    -196.641012     -5350.8740
   1   1.0000     -88.680061     -2413.1072
   2   1.0000     -88.677445     -2413.0360
   3   1.0000     -88.676961     -2413.0228
   4   1.0000     -88.676853     -2413.0199
   5   1.0000     -88.614402     -2411.3205
   6   1.0000     -88.612751     -2411.2755
   7   1.0000     -88.612577     -2411.2708
   8   1.0000     -88.612076     -2411.2572
   9   1.0000     -22.002009      -598.7051
  10   1.0000     -18.861501      -513.2475
  11   1.0000     -18.518371      -503.9105
  12   1.0000     -18.502236      -503.4714
  13   1.0000     -18.501558      -503.4530
  14   1.0000     -10.024984      -272.7937
  15   1.0000     -10.016595      -272.5654
  16   1.0000     -10.015969      -272.5484
  17   1.0000     -10.015498      -272.5356
  18   1.0000     -10.010103      -272.3887
  19   1.0000     -10.004991      -272.2496
  20   1.0000      -9.992806      -271.9181
  21   1.0000      -9.992042      -271.8973
  22   1.0000      -9.991823      -271.8913
  23   1.0000      -9.991311      -271.8774
  24   1.0000      -7.733613      -210.4423
  25   1.0000      -7.731087      -210.3736
  26   1.0000      -7.730611      -210.3606
  27   1.0000      -7.730508      -210.3578
  28   1.0000      -7.668779      -208.6781
  29   1.0000      -7.667193      -208.6349
  30   1.0000      -7.666993      -208.6295
  31   1.0000      -7.666518      -208.6166
  32   1.0000      -5.698948      -155.0763
  33   1.0000      -5.696324      -155.0049
  34   1.0000      -5.695862      -154.9923
  35   1.0000      -5.695752      -154.9893
  36   1.0000      -5.694970      -154.9680
  37   1.0000      -5.692395      -154.8979
  38   1.0000      -5.691972      -154.8864
  39   1.0000      -5.691864      -154.8835
  40   1.0000      -5.688288      -154.7862
  41   1.0000      -5.685858      -154.7201
  42   1.0000      -5.685356      -154.7064
  43   1.0000      -5.685265      -154.7039
  44   1.0000      -5.633649      -153.2994
  45   1.0000      -5.632054      -153.2560
  46   1.0000      -5.631852      -153.2505
  47   1.0000      -5.631388      -153.2378
  48   1.0000      -5.627436      -153.1303
  49   1.0000      -5.626788      -153.1127
  50   1.0000      -5.625870      -153.0877
  51   1.0000      -5.625684      -153.0826
  52   1.0000      -5.625186      -153.0691
  53   1.0000      -5.625164      -153.0685
  54   1.0000      -5.624964      -153.0631
  55   1.0000      -5.624469      -153.0496
  56   1.0000      -2.366181       -64.3871
  57   1.0000      -1.432894       -38.9910
  58   1.0000      -1.378737       -37.5173
  59   1.0000      -1.378088       -37.4997
  60   1.0000      -0.645252       -17.5582
  61   1.0000      -0.644081       -17.5263
  62   1.0000      -0.626607       -17.0508
  63   1.0000      -0.594761       -16.1843
  64   1.0000      -0.593825       -16.1588
  65   1.0000      -0.576940       -15.6993
  66   1.0000      -0.576146       -15.6777
  67   1.0000      -0.493747       -13.4355
  68   1.0000      -0.490833       -13.3562
  69   1.0000      -0.487633       -13.2692
  70   1.0000      -0.485738       -13.2176
  71   1.0000      -0.424544       -11.5524
  72   1.0000      -0.421526       -11.4703
  73   1.0000      -0.412412       -11.2223
  74   1.0000      -0.406775       -11.0689
  75   1.0000      -0.375984       -10.2311
  76   1.0000      -0.372679       -10.1411
  77   1.0000      -0.293142        -7.9768
  78   1.0000      -0.291147        -7.9225
  79   1.0000      -0.283495        -7.7143
  80   1.0000      -0.278019        -7.5653
  81   1.0000      -0.260407        -7.0860
  82   1.0000      -0.256037        -6.9671
  83   1.0000      -0.241267        -6.5652
  84   1.0000      -0.233078        -6.3424
  85   1.0000      -0.197711        -5.3800
  86   1.0000      -0.194305        -5.2873
  87   1.0000      -0.192491        -5.2379
  88   1.0000      -0.190917        -5.1951
  89   1.0000      -0.184826        -5.0294
  90   1.0000      -0.179649        -4.8885
  91   1.0000      -0.168419        -4.5829
  92   1.0000      -0.151180        -4.1138
  93   1.0000      -0.149539        -4.0692
  94   1.0000      -0.144631        -3.9356
  95   1.0000      -0.143025        -3.8919
  96   1.0000      -0.139563        -3.7977
  97   1.0000      -0.096713        -2.6317
  98   1.0000      -0.095983        -2.6118
  99   1.0000      -0.089872        -2.4455
 100   1.0000      -0.083871        -2.2822
 101   1.0000      -0.082806        -2.2533
 102   1.0000      -0.080843        -2.1999
 103   1.0000      -0.071498        -1.9456
 104   1.0000      -0.046602        -1.2681
 105   1.0000      -0.039209        -1.0669
 106   1.0000      -0.037836        -1.0296
 107   1.0000      -0.035495        -0.9659
 108   1.0000      -0.032465        -0.8834
 109   1.0000      -0.012993        -0.3536
 110   1.0000      -0.006410        -0.1744
 111   1.0000      -0.002959        -0.0805
 112   1.0000       0.006222         0.1693
 113   1.0000       0.010772         0.2931
 114   1.0000       0.033157         0.9022
 115   1.0000       0.058255         1.5852
 116   0.0000       0.181806         4.9472
 117   0.0000       0.184572         5.0225
 118   0.0000       0.192434         5.2364
 119   0.0000       0.196336         5.3426
 120   0.0000       0.197802         5.3825

MULLIKEN ATOMIC CHARGES AND SPIN POPULATIONS
--------------------------------------------
   0 V :    0.447506    1.199149
   1 S :   -0.253548   -0.024368
   2 S :   -0.252793   -0.024237
   3 S :   -0.252255   -0.023685
   4 S :   -0.254843   -0.024042
   5 O :   -0.506064   -0.138773
   6 C :   -0.116051    0.008843
   7 C :   -0.116360    0.008885
   8 C :   -0.100749    0.008711
   9 C :   -0.133012    0.008999
  10 S :   -0.043365   -0.000161
  11 S :   -0.045783   -0.000201
  12 S :   -0.063062   -0.000278
  13 S :   -0.024635   -0.000115
  14 C :   -0.339081    0.000283
  15 C :   -0.320243    0.000269
  16 C :   -0.338057    0.000273
  17 C :   -0.326356    0.000389
  18 C :   -0.083158    0.000137
  19 H :    0.146536   -0.000102
  20 H :    0.101706    0.000019
  21 H :    0.044534    0.000039
  22 H :    0.078504    0.000017
  23 H :    0.102050    0.000023
  24 H :    0.147588   -0.000103
  25 C :   -0.072694    0.000102
  26 H :    0.080945    0.000006
  27 H :    0.145835   -0.000097
  28 H :    0.074104    0.000005
  29 H :    0.031765    0.000057
  30 H :    0.152389   -0.000094
  31 H :    0.088644    0.000046
Sum of atomic charges         :   -2.0000000

LOEWDIN ATOMIC CHARGES AND SPIN POPULATIONS
-------------------------------------------
   0 V :   -0.242721    1.153160
   1 S :    0.087378   -0.016558
   2 S :    0.088587   -0.016445
   3 S :    0.091213   -0.015972
   4 S :    0.087565   -0.016276
   5 O :   -0.350569   -0.124226
   6 C :   -0.553336    0.009980
   7 C :   -0.552499    0.009960
   8 C :   -0.556028    0.009941
   9 C :   -0.550399    0.010000
  10 S :    0.337793   -0.001024
  11 S :    0.335923   -0.001044
  12 S :    0.327505   -0.001093
  13 S :    0.351951   -0.000983
  14 C :   -0.293132    0.000165
  15 C :   -0.294738    0.000170
  16 C :   -0.294212    0.000156
  17 C :   -0.310776    0.000180
  18 C :   -0.184827   -0.000036
  19 H :    0.065885   -0.000027
  20 H :    0.047457    0.000003
  21 H :    0.046847    0.000017
  22 H :    0.053429    0.000013
  23 H :    0.047267    0.000007
  24 H :    0.066000   -0.000027
  25 C :   -0.195125   -0.000043
  26 H :    0.052360   -0.000007
  27 H :    0.066999   -0.000031
  28 H :    0.055378    0.000009
  29 H :    0.051068    0.000024
  30 H :    0.066406   -0.000022
  31 H :    0.051350    0.000032

  Mayer bond orders larger than 0.100000
B(  0-V ,  1-S ) :   0.7915 B(  0-V ,  2-S ) :   0.7921 B(  0-V ,  3-S ) :   0.7848
B(  0-V ,  4-S ) :   0.7881 B(  0-V ,  5-O ) :   2.1085 B(  1-S ,  8-C ) :   1.1305
B(  2-S ,  6-C ) :   1.1366 B(  3-S ,  9-C ) :   1.1445 B(  4-S ,  7-C ) :   1.1377
B(  6-C ,  7-C ) :   1.5176 B(  6-C , 10-S ) :   0.9536 B(  7-C , 11-S ) :   0.9541
B(  8-C ,  9-C ) :   1.5060 B(  8-C , 13-S ) :   0.9512 B(  9-C , 12-S ) :   0.9595
B( 10-S , 16-C ) :   1.0059 B( 11-S , 14-C ) :   1.0038 B( 12-S , 15-C ) :   0.9672
B( 13-S , 17-C ) :   1.0061 B( 14-C , 18-C ) :   0.8805 B( 14-C , 23-H ) :   0.9706
B( 14-C , 24-H ) :   0.9754 B( 15-C , 25-C ) :   0.9111 B( 15-C , 30-H ) :   0.9794
B( 15-C , 31-H ) :   0.9729 B( 16-C , 18-C ) :   0.8752 B( 16-C , 19-H ) :   0.9750
B( 16-C , 20-H ) :   0.9696 B( 17-C , 25-C ) :   0.8326 B( 17-C , 26-H ) :   0.9615
B( 17-C , 27-H ) :   0.9695 B( 18-C , 21-H ) :   0.9528 B( 18-C , 22-H ) :   0.9737
B( 25-C , 28-H ) :   0.9666 B( 25-C , 29-H ) :   0.9543

FINAL SINGLE POINT ENERGY     -4592.693010091324

DIPOLE MOMENT
-------------
                                X             Y             Z
Electronic contribution:      2.56159     -26.08027       5.54115
Nuclear contribution   :     -2.92022      28.94213      -6.26040
                        -----------------------------------------
Total Dipole Moment    :     -0.35864       2.86186      -0.71925
                        -----------------------------------------
Magnitude (a.u.)       :      2.97257
Magnitude (Debye)      :      7.55568

Rotational constants in cm-1:     0.012769     0.002548     0.002431
Rotational constants in MHz :   382.802377    76.397925    72.881707

                             ****ORCA TERMINATED NORMALLY****
TOTAL RUN TIME: 0 days 0 hours 27 minutes 30 seconds 389 msec
