                         Program Version 5.0.4 -  RELEASE  -
|  1> ! nofrozencore ReducedPop printbasis
|  2> ! B3LYP TZVP
|  3>
|  4> %basis
|  5> newgto V "CP(PPP)" end
|  6> end
|  7>
|  8> %pal
|  9> nprocs 8
| 10> end
| 11>
| 12> % sym SymThresh 1e-2 end
| 13> * xyz -2 2
| 14> V 1.0383951137554959 0.1953672673679618 0.016089580475766054
| 15> S 0.7212147288065784 -1.8956897561804493 -1.2152659351985313
| 16> S 0.11512350175130905 1.306969726907001 -1.9563536690011227
| 17> S 0.5230606188723286 -1.1857373247754155 1.967266777918373
| 18> S -0.04685231769273882 2.0249626152130773 1.2265305523362362
| 19> O 2.607176367858683 0.4855197316923062 0.038767972833730575
| 20> C -0.2836797261160646 2.924234533083034 -1.3623572602813712
| 21> C -0.3528538730225622 3.2221807667815874 -0.03790506479087148
| 22> C 0.844014048461613 -3.1283118008840463 0.046020440013690336
| 23> C 0.7624042372062025 -2.833184494647517 1.3705132946363288
| 24> S -0.6970502504481667 4.132145404112986 -2.637610803037111
| 25> S -0.8709220267115609 4.847749472306353 0.5502233583828513
| 26> S 0.7807119346674067 -4.115841243481441 2.6397569620948103
| 27> S 0.9754350689712337 -4.827295340197442 -0.549068849266781
| 28> C -2.66722698174268 4.830762600863877 0.10749341034087934
| 29> C -0.8688063472131596 -4.907065953328405 2.368723162262809
| 30> C -2.5295116734075394 4.265430990101986 -2.422504111817892
| 31> C -0.7141184008043464 -5.4712977726763095 -0.16122570122933183
| 32> C -3.0118471317864857 5.223852652654706 -1.3310389856773222
| 33> H -2.9004592484624827 3.2507595235616273 -2.2512820211061597
| 34> H -2.910378117040584 4.60292584119939 -3.3920293491083178
| 35> H -4.112417592128533 5.294376025762393 -1.4066815489271816
| 36> H -2.614655010246464 6.228354624104055 -1.5339121186370834
| 37> H -3.141396740054334 5.537051779011135 0.796900369270609
| 38> H -3.0393179196275244 3.82982335930619 0.34451328364035916
| 39> C -0.9343331879242514 -5.969191263351897 1.2689569815485067
| 40> H -0.8733913648194784 -6.300119985000466 -0.8588778229611645
| 41> H -1.4203132003739078 -4.6766134280192295 -0.41860678760486847
| 42> H -0.2036213417234167 -6.759738486188763 1.490020053337276
| 43> H -1.9344314281229367 -6.437740094568883 1.3121235284417703
| 44> H -1.5790208708674516 -4.096688108643424 2.18085646447091
| 45> H -1.1297956410753143 -5.365980487256754 3.3279906725766217
| 46> *
| 47>
| 48> % eprnmr
| 49> gtensor true
| 50> Nuclei = all H {aiso,adip,aorb,fgrad,rho}
| 51> Nuclei = all V {aiso,adip,aorb,fgrad,rho}
| 52> end
| 53>
| 54>                          ****END OF INPUT****

CARTESIAN COORDINATES (ANGSTROEM)
---------------------------------
  V      1.039545    0.195663    0.016083
  S      0.722364   -1.895394   -1.215272
  S      0.116273    1.307265   -1.956360
  S      0.524210   -1.185442    1.967261
  S     -0.045703    2.025258    1.226524
  O      2.608326    0.485815    0.038762
  C     -0.282530    2.924530   -1.362364
  C     -0.351704    3.222476   -0.037911
  C      0.845163   -3.128016    0.046014
  C      0.763554   -2.832889    1.370507
  S     -0.695901    4.132441   -2.637617
  S     -0.869773    4.848045    0.550217
  S      0.781861   -4.115546    2.639751
  S      0.976585   -4.827000   -0.549075
  C     -2.666078    4.831058    0.107487
  C     -0.867657   -4.906771    2.368717
  C     -2.528362    4.265726   -2.422510
  C     -0.712969   -5.471002   -0.161232
  C     -3.010698    5.224148   -1.331045
  H     -2.899310    3.251055   -2.251288
  H     -2.909229    4.603221   -3.392036
  H     -4.111268    5.294671   -1.406688
  H     -2.613506    6.228650   -1.533918
  H     -3.140247    5.537347    0.796894
  H     -3.038168    3.830119    0.344507
  C     -0.933184   -5.968896    1.268951
  H     -0.872242   -6.299825   -0.858884
  H     -1.419164   -4.676318   -0.418613
  H     -0.202472   -6.759443    1.490014
  H     -1.933282   -6.437445    1.312117
  H     -1.577871   -4.096393    2.180850
  H     -1.128646   -5.365685    3.327984

 Total Charge           Charge          ....   -2
 Multiplicity           Mult            ....    2
 Number of Electrons    NEL             ....  233
 Basis Dimension        Dim             ....  517

ORBITAL ENERGIES
----------------
                 SPIN UP ORBITALS
  NO   OCC          E(Eh)            E(eV)
   0   1.0000    -196.639170     -5350.8239
   1   1.0000     -88.675521     -2412.9836
   2   1.0000     -88.675474     -2412.9823
   3   1.0000     -88.675441     -2412.9814
   4   1.0000     -88.675399     -2412.9803
   5   1.0000     -88.612100     -2411.2578
   6   1.0000     -88.612063     -2411.2568
   7   1.0000     -88.612055     -2411.2566
   8   1.0000     -88.612008     -2411.2553
   9   1.0000     -22.015012      -599.0589
  10   1.0000     -18.856887      -513.1220
  11   1.0000     -18.521843      -504.0050
  12   1.0000     -18.516049      -503.8473
  13   1.0000     -18.516014      -503.8464
  14   1.0000     -10.014358      -272.5045
  15   1.0000     -10.014330      -272.5038
  16   1.0000     -10.014273      -272.5022
  17   1.0000     -10.014251      -272.5016
  18   1.0000     -10.004889      -272.2469
  19   1.0000     -10.004776      -272.2438
  20   1.0000      -9.991578      -271.8847
  21   1.0000      -9.991565      -271.8843
  22   1.0000      -9.990852      -271.8649
  23   1.0000      -9.990846      -271.8647
  24   1.0000      -7.729203      -210.3223
  25   1.0000      -7.729144      -210.3207
  26   1.0000      -7.729133      -210.3204
  27   1.0000      -7.729109      -210.3197
  28   1.0000      -7.666542      -208.6172
  29   1.0000      -7.666535      -208.6170
  30   1.0000      -7.666502      -208.6161
  31   1.0000      -7.666455      -208.6148
  32   1.0000      -5.694425      -154.9532
  33   1.0000      -5.694370      -154.9517
  34   1.0000      -5.694352      -154.9512
  35   1.0000      -5.694330      -154.9506
  36   1.0000      -5.690623      -154.8497
  37   1.0000      -5.690567      -154.8482
  38   1.0000      -5.690557      -154.8479
  39   1.0000      -5.690529      -154.8472
  40   1.0000      -5.683908      -154.6670
  41   1.0000      -5.683854      -154.6655
  42   1.0000      -5.683834      -154.6650
  43   1.0000      -5.683815      -154.6645
  44   1.0000      -5.631373      -153.2374
  45   1.0000      -5.631353      -153.2369
  46   1.0000      -5.631326      -153.2362
  47   1.0000      -5.631287      -153.2351
  48   1.0000      -5.625011      -153.0643
  49   1.0000      -5.624980      -153.0635
  50   1.0000      -5.624960      -153.0629
  51   1.0000      -5.624910      -153.0616
  52   1.0000      -5.624521      -153.0510
  53   1.0000      -5.624506      -153.0506
  54   1.0000      -5.624502      -153.0505
  55   1.0000      -5.624441      -153.0488
  56   1.0000      -2.408904       -65.5496
  57   1.0000      -1.450451       -39.4688
  58   1.0000      -1.438534       -39.1445
  59   1.0000      -1.437765       -39.1236
  60   1.0000      -0.642593       -17.4858
  61   1.0000      -0.642504       -17.4834
  62   1.0000      -0.617848       -16.8125
  63   1.0000      -0.592805       -16.1310
  64   1.0000      -0.592359       -16.1189
  65   1.0000      -0.574467       -15.6321
  66   1.0000      -0.574348       -15.6288
  67   1.0000      -0.490715       -13.3530
  68   1.0000      -0.488744       -13.2994
  69   1.0000      -0.486056       -13.2263
  70   1.0000      -0.484880       -13.1943
  71   1.0000      -0.422932       -11.5086
  72   1.0000      -0.420215       -11.4346
  73   1.0000      -0.411858       -11.2072
  74   1.0000      -0.406652       -11.0656
  75   1.0000      -0.374671       -10.1953
  76   1.0000      -0.371644       -10.1129
  77   1.0000      -0.290833        -7.9140
  78   1.0000      -0.290655        -7.9091
  79   1.0000      -0.275444        -7.4952
  80   1.0000      -0.275197        -7.4885
  81   1.0000      -0.259540        -7.0625
  82   1.0000      -0.254815        -6.9339
  83   1.0000      -0.240081        -6.5329
  84   1.0000      -0.237089        -6.4515
  85   1.0000      -0.195222        -5.3123
  86   1.0000      -0.191780        -5.2186
  87   1.0000      -0.190988        -5.1970
  88   1.0000      -0.189883        -5.1670
  89   1.0000      -0.183039        -4.9807
  90   1.0000      -0.182877        -4.9763
  91   1.0000      -0.180926        -4.9232
  92   1.0000      -0.150647        -4.0993
  93   1.0000      -0.150532        -4.0962
  94   1.0000      -0.144291        -3.9264
  95   1.0000      -0.142631        -3.8812
  96   1.0000      -0.141197        -3.8422
  97   1.0000      -0.097119        -2.6427
  98   1.0000      -0.096253        -2.6192
  99   1.0000      -0.089923        -2.4469
 100   1.0000      -0.082091        -2.2338
 101   1.0000      -0.081125        -2.2075
 102   1.0000      -0.080075        -2.1790
 103   1.0000      -0.068031        -1.8512
 104   1.0000      -0.050787        -1.3820
 105   1.0000      -0.039350        -1.0708
 106   1.0000      -0.037711        -1.0262
 107   1.0000      -0.036477        -0.9926
 108   1.0000      -0.029981        -0.8158
 109   1.0000      -0.012701        -0.3456
 110   1.0000      -0.003946        -0.1074
 111   1.0000      -0.003234        -0.0880
 112   1.0000       0.006977         0.1899
 113   1.0000       0.010958         0.2982
 114   1.0000       0.016963         0.4616
 115   1.0000       0.033209         0.9037
 116   1.0000       0.058737         1.5983
 117   0.0000       0.188401         5.1266
 118   0.0000       0.194677         5.2974
 119   0.0000       0.196559         5.3486
 120   0.0000       0.196940         5.3590
 121   0.0000       0.212088         5.7712

                 SPIN DOWN ORBITALS
  NO   OCC          E(Eh)            E(eV)
   0   1.0000    -196.639312     -5350.8277
   1   1.0000     -88.675534     -2412.9840
   2   1.0000     -88.675487     -2412.9827
   3   1.0000     -88.675454     -2412.9818
   4   1.0000     -88.675412     -2412.9806
   5   1.0000     -88.612257     -2411.2621
   6   1.0000     -88.612221     -2411.2611
   7   1.0000     -88.612213     -2411.2609
   8   1.0000     -88.612166     -2411.2596
   9   1.0000     -22.000356      -598.6601
  10   1.0000     -18.860482      -513.2198
  11   1.0000     -18.516725      -503.8657
  12   1.0000     -18.500446      -503.4227
  13   1.0000     -18.500012      -503.4109
  14   1.0000     -10.014353      -272.5044
  15   1.0000     -10.014326      -272.5037
  16   1.0000     -10.014267      -272.5021
  17   1.0000     -10.014246      -272.5015
  18   1.0000     -10.004888      -272.2468
  19   1.0000     -10.004775      -272.2438
  20   1.0000      -9.991317      -271.8775
  21   1.0000      -9.991303      -271.8772
  22   1.0000      -9.990593      -271.8579
  23   1.0000      -9.990587      -271.8577
  24   1.0000      -7.729217      -210.3227
  25   1.0000      -7.729158      -210.3211
  26   1.0000      -7.729147      -210.3208
  27   1.0000      -7.729122      -210.3201
  28   1.0000      -7.666688      -208.6212
  29   1.0000      -7.666682      -208.6210
  30   1.0000      -7.666648      -208.6201
  31   1.0000      -7.666601      -208.6188
  32   1.0000      -5.694442      -154.9536
  33   1.0000      -5.694386      -154.9521
  34   1.0000      -5.694369      -154.9516
  35   1.0000      -5.694347      -154.9511
  36   1.0000      -5.690643      -154.8503
  37   1.0000      -5.690586      -154.8487
  38   1.0000      -5.690577      -154.8485
  39   1.0000      -5.690549      -154.8477
  40   1.0000      -5.683925      -154.6675
  41   1.0000      -5.683871      -154.6660
  42   1.0000      -5.683851      -154.6654
  43   1.0000      -5.683832      -154.6649
  44   1.0000      -5.631543      -153.2421
  45   1.0000      -5.631523      -153.2415
  46   1.0000      -5.631496      -153.2408
  47   1.0000      -5.631457      -153.2397
  48   1.0000      -5.625395      -153.0748
  49   1.0000      -5.625363      -153.0739
  50   1.0000      -5.625345      -153.0734
  51   1.0000      -5.625297      -153.0721
  52   1.0000      -5.624654      -153.0546
  53   1.0000      -5.624642      -153.0543
  54   1.0000      -5.624634      -153.0541
  55   1.0000      -5.624573      -153.0524
  56   1.0000      -2.364760       -64.3484
  57   1.0000      -1.431677       -38.9579
  58   1.0000      -1.377101       -37.4728
  59   1.0000      -1.376883       -37.4669
  60   1.0000      -0.642535       -17.4843
  61   1.0000      -0.642443       -17.4818
  62   1.0000      -0.625545       -17.0220
  63   1.0000      -0.592615       -16.1259
  64   1.0000      -0.592148       -16.1132
  65   1.0000      -0.574457       -15.6318
  66   1.0000      -0.574337       -15.6285
  67   1.0000      -0.490728       -13.3534
  68   1.0000      -0.488772       -13.3002
  69   1.0000      -0.486050       -13.2261
  70   1.0000      -0.484892       -13.1946
  71   1.0000      -0.423162       -11.5148
  72   1.0000      -0.420512       -11.4427
  73   1.0000      -0.411856       -11.2072
  74   1.0000      -0.406739       -11.0679
  75   1.0000      -0.374624       -10.1940
  76   1.0000      -0.371666       -10.1135
  77   1.0000      -0.290805        -7.9132
  78   1.0000      -0.290643        -7.9088
  79   1.0000      -0.275417        -7.4945
  80   1.0000      -0.275180        -7.4880
  81   1.0000      -0.259335        -7.0569
  82   1.0000      -0.254774        -6.9328
  83   1.0000      -0.239961        -6.5297
  84   1.0000      -0.236999        -6.4491
  85   1.0000      -0.194756        -5.2996
  86   1.0000      -0.191722        -5.2170
  87   1.0000      -0.190937        -5.1957
  88   1.0000      -0.189856        -5.1663
  89   1.0000      -0.182947        -4.9782
  90   1.0000      -0.182811        -4.9745
  91   1.0000      -0.178845        -4.8666
  92   1.0000      -0.150260        -4.0888
  93   1.0000      -0.149928        -4.0798
  94   1.0000      -0.144098        -3.9211
  95   1.0000      -0.142298        -3.8721
  96   1.0000      -0.141138        -3.8406
  97   1.0000      -0.095761        -2.6058
  98   1.0000      -0.095509        -2.5989
  99   1.0000      -0.090106        -2.4519
 100   1.0000      -0.082228        -2.2375
 101   1.0000      -0.082006        -2.2315
 102   1.0000      -0.080690        -2.1957
 103   1.0000      -0.069423        -1.8891
 104   1.0000      -0.046478        -1.2647
 105   1.0000      -0.039505        -1.0750
 106   1.0000      -0.036647        -0.9972
 107   1.0000      -0.035352        -0.9620
 108   1.0000      -0.029899        -0.8136
 109   1.0000      -0.011791        -0.3209
 110   1.0000      -0.005288        -0.1439
 111   1.0000      -0.002630        -0.0716
 112   1.0000       0.008072         0.2196
 113   1.0000       0.011853         0.3225
 114   1.0000       0.033291         0.9059
 115   1.0000       0.057947         1.5768
 116   0.0000       0.186038         5.0623
 117   0.0000       0.189463         5.1555
 118   0.0000       0.195396         5.3170
 119   0.0000       0.196680         5.3519
 120   0.0000       0.197303         5.3689

MULLIKEN ATOMIC CHARGES AND SPIN POPULATIONS
--------------------------------------------
   0 V :    0.447568    1.197912
   1 S :   -0.255849   -0.024019
   2 S :   -0.255875   -0.023919
   3 S :   -0.256162   -0.023943
   4 S :   -0.256008   -0.023882
   5 O :   -0.502127   -0.139492
   6 C :   -0.114886    0.009140
   7 C :   -0.113386    0.009188
   8 C :   -0.113550    0.009232
   9 C :   -0.114087    0.009165
  10 S :   -0.048548   -0.000200
  11 S :   -0.048393   -0.000242
  12 S :   -0.048340   -0.000227
  13 S :   -0.048436   -0.000265
  14 C :   -0.337407    0.000370
  15 C :   -0.337381    0.000371
  16 C :   -0.336594    0.000349
  17 C :   -0.336740    0.000396
  18 C :   -0.087109    0.000186
  19 H :    0.149836   -0.000134
  20 H :    0.101568    0.000035
  21 H :    0.046180    0.000042
  22 H :    0.075878    0.000008
  23 H :    0.101516    0.000036
  24 H :    0.150335   -0.000135
  25 C :   -0.087084    0.000182
  26 H :    0.101275    0.000042
  27 H :    0.150060   -0.000140
  28 H :    0.075892    0.000003
  29 H :    0.046234    0.000039
  30 H :    0.150250   -0.000136
  31 H :    0.101369    0.000040
Sum of atomic charges         :   -2.0000000

LOEWDIN ATOMIC CHARGES AND SPIN POPULATIONS
-------------------------------------------
   0 V :   -0.249005    1.151681
   1 S :    0.087534   -0.016121
   2 S :    0.087515   -0.016036
   3 S :    0.087310   -0.016041
   4 S :    0.087331   -0.016043
   5 O :   -0.347822   -0.124757
   6 C :   -0.551894    0.010194
   7 C :   -0.551258    0.010157
   8 C :   -0.551090    0.010164
   9 C :   -0.551559    0.010181
  10 S :    0.332052   -0.001027
  11 S :    0.331884   -0.001050
  12 S :    0.332078   -0.001041
  13 S :    0.331954   -0.001060
  14 C :   -0.291581    0.000209
  15 C :   -0.291752    0.000207
  16 C :   -0.291671    0.000198
  17 C :   -0.291713    0.000219
  18 C :   -0.184014   -0.000023
  19 H :    0.067790   -0.000029
  20 H :    0.046645    0.000012
  21 H :    0.047644    0.000025
  22 H :    0.053222    0.000011
  23 H :    0.046662    0.000014
  24 H :    0.067980   -0.000029
  25 C :   -0.184038   -0.000026
  26 H :    0.046624    0.000017
  27 H :    0.067844   -0.000029
  28 H :    0.053226    0.000009
  29 H :    0.047621    0.000025
  30 H :    0.067850   -0.000029
  31 H :    0.046631    0.000016

  Mayer bond orders larger than 0.100000
B(  0-V ,  1-S ) :   0.7870 B(  0-V ,  2-S ) :   0.7896 B(  0-V ,  3-S ) :   0.7895
B(  0-V ,  4-S ) :   0.7866 B(  0-V ,  5-O ) :   2.1151 B(  1-S ,  8-C ) :   1.1436
B(  2-S ,  6-C ) :   1.1421 B(  3-S ,  9-C ) :   1.1421 B(  4-S ,  7-C ) :   1.1436
B(  6-C ,  7-C ) :   1.5233 B(  6-C , 10-S ) :   0.9516 B(  7-C , 11-S ) :   0.9517
B(  8-C ,  9-C ) :   1.5236 B(  8-C , 13-S ) :   0.9517 B(  9-C , 12-S ) :   0.9517
B( 10-S , 16-C ) :   1.0026 B( 11-S , 14-C ) :   1.0025 B( 12-S , 15-C ) :   1.0031
B( 13-S , 17-C ) :   1.0033 B( 14-C , 18-C ) :   0.8785 B( 14-C , 23-H ) :   0.9685
B( 14-C , 24-H ) :   0.9748 B( 15-C , 25-C ) :   0.8780 B( 15-C , 30-H ) :   0.9747
B( 15-C , 31-H ) :   0.9684 B( 16-C , 18-C ) :   0.8784 B( 16-C , 19-H ) :   0.9748
B( 16-C , 20-H ) :   0.9684 B( 17-C , 25-C ) :   0.8782 B( 17-C , 26-H ) :   0.9686
B( 17-C , 27-H ) :   0.9746 B( 18-C , 21-H ) :   0.9537 B( 18-C , 22-H ) :   0.9742
B( 25-C , 28-H ) :   0.9744 B( 25-C , 29-H ) :   0.9538

FINAL SINGLE POINT ENERGY     -4592.723492814531

DIPOLE MOMENT
-------------
                                X             Y             Z
Electronic contribution:     26.08382       4.93251       0.41182
Nuclear contribution   :    -29.05906      -5.49358      -0.45830
                        -----------------------------------------
Total Dipole Moment    :     -2.97524      -0.56107      -0.04647
                        -----------------------------------------
Magnitude (a.u.)       :      3.02804
Magnitude (Debye)      :      7.69667

Rotational constants in cm-1:     0.012945     0.002572     0.002450
Rotational constants in MHz :   388.069301    77.106558    73.447793

                             ****ORCA TERMINATED NORMALLY****
TOTAL RUN TIME: 0 days 0 hours 27 minutes 43 seconds 282 msec
