                         Program Version 5.0.4 -  RELEASE  -
|  1> ! nofrozencore ReducedPop printbasis
|  2> ! B3LYP TZVP
|  3>
|  4> %basis
|  5> newgto V "CP(PPP)" end
|  6> end
|  7>
|  8> %pal
|  9> nprocs 8
| 10> end
| 11>
| 12> % sym SymThresh 1e-2 end
| 13> * xyz -2 2
| 14> V -0.5449439155721606 -0.8828976481370162 0.40978351099209354
| 15> S 1.0392867526227039 -0.14230021926174521 2.0782196011013885
| 16> S -1.8549606959371832 1.148489309574309 0.9974443671943649
| 17> S 1.4860239694154316 -1.7327649203286084 -0.727498488022068
| 18> S -1.4018198528016288 -0.4382279013672842 -1.8139682386269738
| 19> O -1.3328754624162051 -2.1413528589043365 0.9973552376821463
| 20> C -2.8338549215888356 1.3313279599189092 -0.5313470025415508
| 21> C -2.740703792812576 0.6276223027897185 -1.6970226012383247
| 22> C 2.5084633652050186 -0.9998582783388295 1.8677486757836632
| 23> C 2.6823631615170704 -1.5734268444665132 0.6414969577669831
| 24> S -4.147627788662439 2.42824435405963 -0.39058363073438623
| 25> S -3.780177791683237 0.8270878969397797 -3.265793139880353
| 26> S 4.161995246398381 -2.4006438702866713 0.3797668597880939
| 27> S 3.7632849883286164 -0.8503590227804687 3.2767289503180357
| 28> C -3.3325492682754625 2.5913418970583755 -3.6512658349747116
| 29> C 5.4724473001534495 -1.1211407139749623 0.17274024689377293
| 30> C -3.7504734590079156 3.88144174684683 -1.4513048066270664
| 31> C 5.047389893738857 0.1544761269994079 2.3809736402432318
| 32> C -4.105878370324001 3.694136758363328 -2.921399259830193
| 33> H -2.691798414672074 4.140475945396843 -1.320589516977938
| 34> H -4.356389169203318 4.698365111490941 -1.0301886912491982
| 35> H -3.907803722903032 4.640775457808282 -3.450050345826642
| 36> H -5.180394121996822 3.4996080276724375 -3.0076981451635736
| 37> H -3.4740906263053395 2.7053087949790546 -4.738134523517811
| 38> H -2.2583786231294978 2.67542955418138 -3.4420976356583117
| 39> C 6.039748545142431 -0.5927822087057175 1.484555534503123
| 40> H 5.601704654618191 0.6932431437460711 3.1657468366631836
| 41> H 4.487493618487511 0.896133063196324 1.7975198086038537
| 42> H 6.477110096800277 -1.4256314799731018 2.045823483688561
| 43> H 6.861561882091839 0.10385468790998345 1.2522133502839756
| 44> H 5.085084878158166 -0.30964678741707596 -0.4579661118308019
| 45> H 6.267839113689014 -1.6384883633645333 -0.38681114358318136
| 46> *
| 47>
| 48> % eprnmr
| 49> gtensor true
| 50> Nuclei = all H {aiso,adip,aorb,fgrad,rho}
| 51> Nuclei = all V {aiso,adip,aorb,fgrad,rho}
| 52> end
| 53>
| 54>                          ****END OF INPUT****

CARTESIAN COORDINATES (ANGSTROEM)
---------------------------------
  V     -0.545597   -0.883800    0.410192
  S      1.038634   -0.143203    2.078628
  S     -1.855614    1.147587    0.997853
  S      1.485371   -1.733668   -0.727090
  S     -1.402473   -0.439131   -1.813560
  O     -1.333528   -2.142256    0.997764
  C     -2.834508    1.330425   -0.530938
  C     -2.741357    0.626720   -1.696614
  C      2.507810   -1.000761    1.868157
  C      2.681710   -1.574330    0.641906
  S     -4.148281    2.427342   -0.390175
  S     -3.780831    0.826185   -3.265384
  S      4.161342   -2.401547    0.380176
  S      3.762632   -0.851262    3.277138
  C     -3.333202    2.590439   -3.650857
  C      5.471794   -1.122044    0.173149
  C     -3.751126    3.880539   -1.450896
  C      5.046737    0.153573    2.381382
  C     -4.106531    3.693234   -2.920991
  H     -2.692451    4.139573   -1.320181
  H     -4.357042    4.697462   -1.029780
  H     -3.908457    4.639873   -3.449642
  H     -5.181047    3.498705   -3.007289
  H     -3.474744    2.704406   -4.737726
  H     -2.259032    2.674527   -3.441689
  C      6.039096   -0.593685    1.484964
  H      5.601052    0.692340    3.166156
  H      4.486841    0.895230    1.797929
  H      6.476457   -1.426534    2.046232
  H      6.860909    0.102952    1.252622
  H      5.084432   -0.310550   -0.457557
  H      6.267186   -1.639391   -0.386402

 Total Charge           Charge          ....   -2
 Multiplicity           Mult            ....    2
 Number of Electrons    NEL             ....  233
 Basis Dimension        Dim             ....  517

ORBITAL ENERGIES
----------------
                 SPIN UP ORBITALS
  NO   OCC          E(Eh)            E(eV)
   0   1.0000    -196.641279     -5350.8812
   1   1.0000     -88.688921     -2413.3482
   2   1.0000     -88.688561     -2413.3384
   3   1.0000     -88.663282     -2412.6505
   4   1.0000     -88.663118     -2412.6461
   5   1.0000     -88.616976     -2411.3905
   6   1.0000     -88.616480     -2411.3770
   7   1.0000     -88.608057     -2411.1478
   8   1.0000     -88.607753     -2411.1396
   9   1.0000     -22.016959      -599.1119
  10   1.0000     -18.858208      -513.1579
  11   1.0000     -18.523788      -504.0579
  12   1.0000     -18.518049      -503.9017
  13   1.0000     -18.517937      -503.8987
  14   1.0000     -10.020442      -272.6701
  15   1.0000     -10.020161      -272.6624
  16   1.0000     -10.011897      -272.4376
  17   1.0000     -10.011476      -272.4261
  18   1.0000     -10.004247      -272.2294
  19   1.0000     -10.003875      -272.2193
  20   1.0000      -9.997852      -272.0554
  21   1.0000      -9.997497      -272.0457
  22   1.0000      -9.986367      -271.7429
  23   1.0000      -9.986022      -271.7335
  24   1.0000      -7.740715      -210.6356
  25   1.0000      -7.740360      -210.6259
  26   1.0000      -7.719171      -210.0493
  27   1.0000      -7.718972      -210.0439
  28   1.0000      -7.669857      -208.7074
  29   1.0000      -7.669282      -208.6918
  30   1.0000      -7.664406      -208.5591
  31   1.0000      -7.663992      -208.5478
  32   1.0000      -5.705930      -155.2662
  33   1.0000      -5.705572      -155.2565
  34   1.0000      -5.702582      -155.1751
  35   1.0000      -5.702233      -155.1657
  36   1.0000      -5.695341      -154.9781
  37   1.0000      -5.694983      -154.9684
  38   1.0000      -5.684385      -154.6800
  39   1.0000      -5.684183      -154.6745
  40   1.0000      -5.680060      -154.5623
  41   1.0000      -5.679878      -154.5573
  42   1.0000      -5.673957      -154.3962
  43   1.0000      -5.673749      -154.3906
  44   1.0000      -5.635184      -153.3411
  45   1.0000      -5.634607      -153.3254
  46   1.0000      -5.628778      -153.1668
  47   1.0000      -5.628375      -153.1559
  48   1.0000      -5.628349      -153.1552
  49   1.0000      -5.627819      -153.1408
  50   1.0000      -5.627571      -153.1340
  51   1.0000      -5.626996      -153.1183
  52   1.0000      -5.622924      -153.0075
  53   1.0000      -5.622519      -152.9965
  54   1.0000      -5.622414      -152.9937
  55   1.0000      -5.622021      -152.9830
  56   1.0000      -2.410733       -65.5994
  57   1.0000      -1.452078       -39.5131
  58   1.0000      -1.440617       -39.2012
  59   1.0000      -1.439373       -39.1673
  60   1.0000      -0.644184       -17.5291
  61   1.0000      -0.643839       -17.5198
  62   1.0000      -0.619161       -16.8482
  63   1.0000      -0.597287       -16.2530
  64   1.0000      -0.596483       -16.2311
  65   1.0000      -0.574012       -15.6197
  66   1.0000      -0.573689       -15.6109
  67   1.0000      -0.498367       -13.5613
  68   1.0000      -0.497356       -13.5337
  69   1.0000      -0.481088       -13.0911
  70   1.0000      -0.480620       -13.0783
  71   1.0000      -0.423150       -11.5145
  72   1.0000      -0.421810       -11.4780
  73   1.0000      -0.409193       -11.1347
  74   1.0000      -0.405588       -11.0366
  75   1.0000      -0.372901       -10.1472
  76   1.0000      -0.369924       -10.0661
  77   1.0000      -0.290920        -7.9163
  78   1.0000      -0.290454        -7.9037
  79   1.0000      -0.279450        -7.6042
  80   1.0000      -0.279053        -7.5934
  81   1.0000      -0.257769        -7.0142
  82   1.0000      -0.253459        -6.8970
  83   1.0000      -0.240755        -6.5513
  84   1.0000      -0.238074        -6.4783
  85   1.0000      -0.196267        -5.3407
  86   1.0000      -0.194360        -5.2888
  87   1.0000      -0.189508        -5.1568
  88   1.0000      -0.189015        -5.1434
  89   1.0000      -0.183852        -5.0029
  90   1.0000      -0.183530        -4.9941
  91   1.0000      -0.181307        -4.9336
  92   1.0000      -0.153533        -4.1778
  93   1.0000      -0.148234        -4.0337
  94   1.0000      -0.145705        -3.9648
  95   1.0000      -0.142738        -3.8841
  96   1.0000      -0.142161        -3.8684
  97   1.0000      -0.100241        -2.7277
  98   1.0000      -0.098335        -2.6758
  99   1.0000      -0.089611        -2.4384
 100   1.0000      -0.088527        -2.4089
 101   1.0000      -0.080777        -2.1980
 102   1.0000      -0.077393        -2.1060
 103   1.0000      -0.068294        -1.8584
 104   1.0000      -0.046881        -1.2757
 105   1.0000      -0.041509        -1.1295
 106   1.0000      -0.039893        -1.0855
 107   1.0000      -0.031688        -0.8623
 108   1.0000      -0.030131        -0.8199
 109   1.0000      -0.013139        -0.3575
 110   1.0000      -0.002904        -0.0790
 111   1.0000      -0.002466        -0.0671
 112   1.0000       0.004864         0.1324
 113   1.0000       0.012844         0.3495
 114   1.0000       0.017742         0.4828
 115   1.0000       0.034328         0.9341
 116   1.0000       0.059942         1.6311
 117   0.0000       0.186754         5.0818
 118   0.0000       0.189395         5.1537
 119   0.0000       0.194405         5.2900
 120   0.0000       0.196651         5.3511
 121   0.0000       0.205480         5.5914

                 SPIN DOWN ORBITALS
  NO   OCC          E(Eh)            E(eV)
   0   1.0000    -196.641419     -5350.8851
   1   1.0000     -88.688941     -2413.3488
   2   1.0000     -88.688581     -2413.3390
   3   1.0000     -88.663288     -2412.6507
   4   1.0000     -88.663125     -2412.6463
   5   1.0000     -88.617153     -2411.3953
   6   1.0000     -88.616657     -2411.3818
   7   1.0000     -88.608196     -2411.1516
   8   1.0000     -88.607893     -2411.1434
   9   1.0000     -22.002253      -598.7118
  10   1.0000     -18.861804      -513.2558
  11   1.0000     -18.518636      -503.9177
  12   1.0000     -18.502503      -503.4787
  13   1.0000     -18.501786      -503.4592
  14   1.0000     -10.020440      -272.6700
  15   1.0000     -10.020159      -272.6624
  16   1.0000     -10.011888      -272.4373
  17   1.0000     -10.011469      -272.4259
  18   1.0000     -10.004246      -272.2294
  19   1.0000     -10.003874      -272.2192
  20   1.0000      -9.997595      -272.0484
  21   1.0000      -9.997246      -272.0389
  22   1.0000      -9.986116      -271.7360
  23   1.0000      -9.985784      -271.7270
  24   1.0000      -7.740736      -210.6361
  25   1.0000      -7.740380      -210.6265
  26   1.0000      -7.719178      -210.0495
  27   1.0000      -7.718979      -210.0441
  28   1.0000      -7.670024      -208.7120
  29   1.0000      -7.669448      -208.6963
  30   1.0000      -7.664534      -208.5626
  31   1.0000      -7.664121      -208.5513
  32   1.0000      -5.705959      -155.2670
  33   1.0000      -5.705602      -155.2573
  34   1.0000      -5.702610      -155.1759
  35   1.0000      -5.702261      -155.1664
  36   1.0000      -5.695366      -154.9788
  37   1.0000      -5.695009      -154.9691
  38   1.0000      -5.684395      -154.6802
  39   1.0000      -5.684193      -154.6748
  40   1.0000      -5.680073      -154.5627
  41   1.0000      -5.679891      -154.5577
  42   1.0000      -5.673960      -154.3963
  43   1.0000      -5.673753      -154.3907
  44   1.0000      -5.635361      -153.3460
  45   1.0000      -5.634782      -153.3302
  46   1.0000      -5.628943      -153.1713
  47   1.0000      -5.628795      -153.1673
  48   1.0000      -5.628539      -153.1603
  49   1.0000      -5.628267      -153.1529
  50   1.0000      -5.627720      -153.1380
  51   1.0000      -5.627142      -153.1223
  52   1.0000      -5.623208      -153.0153
  53   1.0000      -5.622804      -153.0043
  54   1.0000      -5.622579      -152.9982
  55   1.0000      -5.622185      -152.9874
  56   1.0000      -2.366453       -64.3945
  57   1.0000      -1.433169       -38.9985
  58   1.0000      -1.379162       -37.5289
  59   1.0000      -1.378232       -37.5036
  60   1.0000      -0.644119       -17.5274
  61   1.0000      -0.643780       -17.5181
  62   1.0000      -0.626868       -17.0579
  63   1.0000      -0.597110       -16.2482
  64   1.0000      -0.596302       -16.2262
  65   1.0000      -0.573996       -15.6192
  66   1.0000      -0.573678       -15.6106
  67   1.0000      -0.498369       -13.5613
  68   1.0000      -0.497361       -13.5339
  69   1.0000      -0.481121       -13.0920
  70   1.0000      -0.480664       -13.0795
  71   1.0000      -0.423468       -11.5231
  72   1.0000      -0.422166       -11.4877
  73   1.0000      -0.409191       -11.1347
  74   1.0000      -0.405652       -11.0384
  75   1.0000      -0.372826       -10.1451
  76   1.0000      -0.369916       -10.0659
  77   1.0000      -0.290897        -7.9157
  78   1.0000      -0.290441        -7.9033
  79   1.0000      -0.279418        -7.6034
  80   1.0000      -0.279028        -7.5927
  81   1.0000      -0.257574        -7.0089
  82   1.0000      -0.253412        -6.8957
  83   1.0000      -0.240653        -6.5485
  84   1.0000      -0.237986        -6.4759
  85   1.0000      -0.195943        -5.3319
  86   1.0000      -0.194321        -5.2877
  87   1.0000      -0.189325        -5.1518
  88   1.0000      -0.188937        -5.1412
  89   1.0000      -0.183788        -5.0011
  90   1.0000      -0.183461        -4.9922
  91   1.0000      -0.179290        -4.8787
  92   1.0000      -0.153134        -4.1670
  93   1.0000      -0.147655        -4.0179
  94   1.0000      -0.145498        -3.9592
  95   1.0000      -0.142462        -3.8766
  96   1.0000      -0.142061        -3.8657
  97   1.0000      -0.099855        -2.7172
  98   1.0000      -0.096697        -2.6313
  99   1.0000      -0.089244        -2.4285
 100   1.0000      -0.088743        -2.4148
 101   1.0000      -0.082645        -2.2489
 102   1.0000      -0.077390        -2.1059
 103   1.0000      -0.069601        -1.8939
 104   1.0000      -0.042640        -1.1603
 105   1.0000      -0.040697        -1.1074
 106   1.0000      -0.040141        -1.0923
 107   1.0000      -0.030332        -0.8254
 108   1.0000      -0.029944        -0.8148
 109   1.0000      -0.012603        -0.3429
 110   1.0000      -0.003776        -0.1027
 111   1.0000      -0.001533        -0.0417
 112   1.0000       0.007553         0.2055
 113   1.0000       0.013672         0.3720
 114   1.0000       0.034601         0.9416
 115   1.0000       0.059179         1.6103
 116   0.0000       0.184502         5.0205
 117   0.0000       0.187636         5.1058
 118   0.0000       0.190927         5.1954
 119   0.0000       0.195612         5.3229
 120   0.0000       0.197011         5.3610

MULLIKEN ATOMIC CHARGES AND SPIN POPULATIONS
--------------------------------------------
   0 V :    0.444621    1.200034
   1 S :   -0.231700   -0.020215
   2 S :   -0.270239   -0.027855
   3 S :   -0.267187   -0.028013
   4 S :   -0.233873   -0.020069
   5 O :   -0.505301   -0.139364
   6 C :   -0.136687    0.009576
   7 C :   -0.099352    0.007527
   8 C :   -0.097857    0.007673
   9 C :   -0.138185    0.010136
  10 S :   -0.043536    0.000876
  11 S :   -0.045227   -0.001410
  12 S :   -0.043574    0.000974
  13 S :   -0.044771   -0.001393
  14 C :   -0.363939    0.000073
  15 C :   -0.310458    0.000612
  16 C :   -0.311676    0.000540
  17 C :   -0.362458    0.000096
  18 C :   -0.083813    0.000232
  19 H :    0.132987   -0.000097
  20 H :    0.094794    0.000023
  21 H :    0.044103    0.000047
  22 H :    0.079594    0.000016
  23 H :    0.102291   -0.000001
  24 H :    0.161822   -0.000128
  25 C :   -0.084245    0.000241
  26 H :    0.102045    0.000005
  27 H :    0.160907   -0.000132
  28 H :    0.079242    0.000013
  29 H :    0.044495    0.000052
  30 H :    0.132646   -0.000101
  31 H :    0.094531    0.000032
Sum of atomic charges         :   -2.0000000

LOEWDIN ATOMIC CHARGES AND SPIN POPULATIONS
-------------------------------------------
   0 V :   -0.240944    1.153880
   1 S :    0.122893   -0.012789
   2 S :    0.056547   -0.019817
   3 S :    0.059868   -0.019781
   4 S :    0.119462   -0.012862
   5 O :   -0.349863   -0.124846
   6 C :   -0.579547    0.009473
   7 C :   -0.529868    0.009920
   8 C :   -0.529799    0.010111
   9 C :   -0.579917    0.009952
  10 S :    0.363978   -0.000007
  11 S :    0.307570   -0.002093
  12 S :    0.364612    0.000089
  13 S :    0.307860   -0.002079
  14 C :   -0.290983    0.000085
  15 C :   -0.298015    0.000391
  16 C :   -0.297983    0.000335
  17 C :   -0.290986    0.000094
  18 C :   -0.186606   -0.000000
  19 H :    0.062357   -0.000002
  20 H :    0.047797   -0.000001
  21 H :    0.046161    0.000026
  22 H :    0.053574    0.000012
  23 H :    0.047644   -0.000012
  24 H :    0.071397   -0.000062
  25 C :   -0.186340    0.000003
  26 H :    0.047689   -0.000008
  27 H :    0.071083   -0.000061
  28 H :    0.053591    0.000012
  29 H :    0.046370    0.000032
  30 H :    0.062369    0.000001
  31 H :    0.048031    0.000005

  Mayer bond orders larger than 0.100000
B(  0-V ,  1-S ) :   0.8039 B(  0-V ,  2-S ) :   0.7727 B(  0-V ,  3-S ) :   0.7785
B(  0-V ,  4-S ) :   0.7988 B(  0-V ,  5-O ) :   2.1085 B(  1-S ,  8-C ) :   1.1527
B(  2-S ,  6-C ) :   1.1131 B(  3-S ,  9-C ) :   1.1125 B(  4-S ,  7-C ) :   1.1535
B(  6-C ,  7-C ) :   1.5071 B(  6-C , 10-S ) :   0.9896 B(  7-C , 11-S ) :   0.9252
B(  8-C ,  9-C ) :   1.5066 B(  8-C , 13-S ) :   0.9263 B(  9-C , 12-S ) :   0.9935
B( 10-S , 16-C ) :   0.9737 B( 11-S , 14-C ) :   1.0217 B( 12-S , 15-C ) :   0.9722
B( 13-S , 17-C ) :   1.0228 B( 14-C , 18-C ) :   0.8682 B( 14-C , 23-H ) :   0.9680
B( 14-C , 24-H ) :   0.9777 B( 15-C , 25-C ) :   0.8864 B( 15-C , 30-H ) :   0.9714
B( 15-C , 31-H ) :   0.9722 B( 16-C , 18-C ) :   0.8857 B( 16-C , 19-H ) :   0.9719
B( 16-C , 20-H ) :   0.9720 B( 17-C , 25-C ) :   0.8689 B( 17-C , 26-H ) :   0.9680
B( 17-C , 27-H ) :   0.9774 B( 18-C , 21-H ) :   0.9525 B( 18-C , 22-H ) :   0.9739
B( 25-C , 28-H ) :   0.9741 B( 25-C , 29-H ) :   0.9528

FINAL SINGLE POINT ENERGY     -4592.687634150075

DIPOLE MOMENT
-------------
                                X             Y             Z
Electronic contribution:    -13.12412     -21.10483       9.77897
Nuclear contribution   :     14.63059      23.47920     -10.87319
                        -----------------------------------------
Total Dipole Moment    :      1.50647       2.37436      -1.09421
                        -----------------------------------------
Magnitude (a.u.)       :      3.01734
Magnitude (Debye)      :      7.66948

Rotational constants in cm-1:     0.012773     0.002548     0.002431
Rotational constants in MHz :   382.927366    76.393043    72.867541

                             ****ORCA TERMINATED NORMALLY****
TOTAL RUN TIME: 0 days 0 hours 27 minutes 29 seconds 618 msec
