                         Program Version 5.0.4 -  RELEASE  -
|  1> ! nofrozencore ReducedPop printbasis
|  2> ! B3LYP TZVP
|  3>
|  4> %basis
|  5> newgto V "CP(PPP)" end
|  6> end
|  7>
|  8> %pal
|  9> nprocs 4
| 10> end
| 11>
| 12> % sym SymThresh 1e-2 end
| 13> * xyz -2 2
| 14> V -0.36873983310622055 -0.7842714284585264 0.6968517571839932
| 15> S 0.3715153087004447 1.2783337633204634 2.1343422265232332
| 16> S -2.1444411458768746 0.4862572351350262 0.09025025926896468
| 17> S 1.8625679112169062 -1.0865450731170065 0.44020595906035787
| 18> S -0.5822153899801027 -1.7257576809963138 -1.7406822299712092
| 19> O -0.8961779668690429 -1.9082426874890677 1.7008456488123687
| 20> C -2.8807873256907506 -0.20344460054266322 -1.4498385244176568
| 21> C -2.1622129062360287 -1.152314906749982 -2.106394809935005
| 22> C 2.020622453619356 0.8507965526130397 2.3720017596960288
| 23> C 2.7523722695144275 -0.07180452773894665 1.6927154745394117
| 24> S -4.505735931662407 0.22822018463870747 -2.2035916671826423
| 25> S -2.545675643802472 -2.0483991282654266 -3.600927401402353
| 26> S 4.534609284510724 -0.16860262758358618 2.1514931288530894
| 27> S 2.5188327558560957 1.9933465152958776 3.6489521912397214
| 28> C -2.6906667596486047 -0.6350599989216645 -4.786310412326042
| 29> C 5.3109838153914914 1.3409388342053985 1.396571464134397
| 30> C -4.0919449617100065 1.2528934890293653 -3.697387950611203
| 31> C 3.7876344397704664 2.967406857142583 2.719965542200276
| 32> C -3.9057617723611453 0.3088813512613826 -4.8752900660493275
| 33> H -3.2087903768396706 1.8580764889385664 -3.4878358097932094
| 34> H -4.944540582394064 1.920788570024989 -3.855676829959109
| 35> H -3.7663064505694908 0.8939920767368128 -5.806361810248776
| 36> H -4.824323979127669 -0.27689373822264735 -4.998007700744553
| 37> H -2.576796415338562 -1.1194590396796793 -5.761439596243962
| 38> H -1.7904674678930517 -0.03657082795336001 -4.620385778969593
| 39> C 5.213172195218801 2.4718423718338016 2.4085654221794814
| 40> H 3.879158803660128 3.8812362511431178 3.315862177589509
| 41> H 3.297135878616086 3.2459287135101538 1.782926311312345
| 42> H 5.705898198945487 2.150945629247504 3.3339282424229975
| 43> H 5.765870285119086 3.357560770609226 2.0361490943120346
| 44> H 4.818359989750407 1.5663725218840165 0.44961339051584337
| 45> H 6.354458908430943 1.079399681518619 1.1944800578247985
| 46> *
| 47>
| 48> % eprnmr
| 49> gtensor true
| 50> Nuclei = all H {aiso,adip,aorb,fgrad,rho}
| 51> Nuclei = all V {aiso,adip,aorb,fgrad,rho}
| 52> end
| 53>
| 54>                          ****END OF INPUT****

CARTESIAN COORDINATES (ANGSTROEM)
---------------------------------
  V     -0.369198   -0.785118    0.697546
  S      0.371057    1.277488    2.135037
  S     -2.144899    0.485411    0.090945
  S      1.862110   -1.087391    0.440901
  S     -0.582674   -1.726604   -1.739988
  O     -0.896636   -1.909089    1.701540
  C     -2.881246   -0.204291   -1.449144
  C     -2.162671   -1.153161   -2.105700
  C      2.020164    0.849950    2.372696
  C      2.751914   -0.072651    1.693410
  S     -4.506194    0.227374   -2.202897
  S     -2.546134   -2.049245   -3.600233
  S      4.534151   -0.169449    2.152188
  S      2.518374    1.992500    3.649647
  C     -2.691125   -0.635906   -4.785616
  C      5.310526    1.340093    1.397266
  C     -4.092403    1.252047   -3.696693
  C      3.787176    2.966561    2.720660
  C     -3.906220    0.308035   -4.874595
  H     -3.209249    1.857230   -3.487141
  H     -4.944999    1.919942   -3.854982
  H     -3.766765    0.893146   -5.805667
  H     -4.824782   -0.277740   -4.997313
  H     -2.577255   -1.120305   -5.760745
  H     -1.790926   -0.037417   -4.619691
  C      5.212714    2.470996    2.409260
  H      3.878701    3.880390    3.316557
  H      3.296678    3.245082    1.783621
  H      5.705440    2.150099    3.334623
  H      5.765412    3.356715    2.036844
  H      4.817902    1.565526    0.450308
  H      6.354001    1.078553    1.195175

 Total Charge           Charge          ....   -2
 Multiplicity           Mult            ....    2
 Number of Electrons    NEL             ....  233
 Basis Dimension        Dim             ....  517

ORBITAL ENERGIES
----------------
                 SPIN UP ORBITALS
  NO   OCC          E(Eh)            E(eV)
   0   1.0000    -196.634637     -5350.7005
   1   1.0000     -88.678710     -2413.0704
   2   1.0000     -88.678669     -2413.0693
   3   1.0000     -88.676893     -2413.0209
   4   1.0000     -88.676841     -2413.0195
   5   1.0000     -88.612716     -2411.2746
   6   1.0000     -88.612711     -2411.2745
   7   1.0000     -88.611991     -2411.2549
   8   1.0000     -88.611971     -2411.2543
   9   1.0000     -22.010818      -598.9448
  10   1.0000     -18.853225      -513.0223
  11   1.0000     -18.517437      -503.8851
  12   1.0000     -18.512027      -503.7379
  13   1.0000     -18.511818      -503.7322
  14   1.0000     -10.016555      -272.5643
  15   1.0000     -10.016508      -272.5630
  16   1.0000     -10.013011      -272.4679
  17   1.0000     -10.012968      -272.4667
  18   1.0000     -10.005820      -272.2722
  19   1.0000     -10.005784      -272.2712
  20   1.0000      -9.993629      -271.9405
  21   1.0000      -9.993584      -271.9392
  22   1.0000      -9.991608      -271.8855
  23   1.0000      -9.991569      -271.8844
  24   1.0000      -7.731399      -210.3821
  25   1.0000      -7.731374      -210.3814
  26   1.0000      -7.730910      -210.3687
  27   1.0000      -7.730849      -210.3671
  28   1.0000      -7.667752      -208.6501
  29   1.0000      -7.667750      -208.6501
  30   1.0000      -7.666453      -208.6148
  31   1.0000      -7.666419      -208.6139
  32   1.0000      -5.696667      -155.0142
  33   1.0000      -5.696650      -155.0137
  34   1.0000      -5.696257      -155.0030
  35   1.0000      -5.696195      -155.0013
  36   1.0000      -5.692923      -154.9123
  37   1.0000      -5.692892      -154.9115
  38   1.0000      -5.692092      -154.8897
  39   1.0000      -5.692035      -154.8882
  40   1.0000      -5.686167      -154.7285
  41   1.0000      -5.686133      -154.7276
  42   1.0000      -5.685558      -154.7119
  43   1.0000      -5.685501      -154.7103
  44   1.0000      -5.632104      -153.2573
  45   1.0000      -5.632101      -153.2573
  46   1.0000      -5.631876      -153.2511
  47   1.0000      -5.631847      -153.2503
  48   1.0000      -5.626324      -153.1001
  49   1.0000      -5.626309      -153.0996
  50   1.0000      -5.625900      -153.0885
  51   1.0000      -5.625890      -153.0882
  52   1.0000      -5.624599      -153.0531
  53   1.0000      -5.624583      -153.0527
  54   1.0000      -5.624086      -153.0392
  55   1.0000      -5.624058      -153.0384
  56   1.0000      -2.406012       -65.4709
  57   1.0000      -1.447077       -39.3770
  58   1.0000      -1.437435       -39.1146
  59   1.0000      -1.434849       -39.0442
  60   1.0000      -0.643384       -17.5074
  61   1.0000      -0.643300       -17.5051
  62   1.0000      -0.614927       -16.7330
  63   1.0000      -0.598343       -16.2817
  64   1.0000      -0.598056       -16.2739
  65   1.0000      -0.570917       -15.5355
  66   1.0000      -0.570796       -15.5322
  67   1.0000      -0.489393       -13.3171
  68   1.0000      -0.489286       -13.3141
  69   1.0000      -0.487578       -13.2677
  70   1.0000      -0.486367       -13.2347
  71   1.0000      -0.422720       -11.5028
  72   1.0000      -0.421828       -11.4785
  73   1.0000      -0.408113       -11.1053
  74   1.0000      -0.403813       -10.9883
  75   1.0000      -0.378086       -10.2882
  76   1.0000      -0.374858       -10.2004
  77   1.0000      -0.292247        -7.9524
  78   1.0000      -0.292172        -7.9504
  79   1.0000      -0.277542        -7.5523
  80   1.0000      -0.277416        -7.5489
  81   1.0000      -0.257209        -6.9990
  82   1.0000      -0.253015        -6.8849
  83   1.0000      -0.240348        -6.5402
  84   1.0000      -0.237613        -6.4658
  85   1.0000      -0.196269        -5.3408
  86   1.0000      -0.195779        -5.3274
  87   1.0000      -0.189084        -5.1452
  88   1.0000      -0.186503        -5.0750
  89   1.0000      -0.183453        -4.9920
  90   1.0000      -0.181830        -4.9478
  91   1.0000      -0.179134        -4.8745
  92   1.0000      -0.156349        -4.2545
  93   1.0000      -0.144303        -3.9267
  94   1.0000      -0.142992        -3.8910
  95   1.0000      -0.142654        -3.8818
  96   1.0000      -0.141709        -3.8561
  97   1.0000      -0.099240        -2.7005
  98   1.0000      -0.095434        -2.5969
  99   1.0000      -0.088668        -2.4128
 100   1.0000      -0.087358        -2.3771
 101   1.0000      -0.079461        -2.1622
 102   1.0000      -0.078876        -2.1463
 103   1.0000      -0.069495        -1.8911
 104   1.0000      -0.052161        -1.4194
 105   1.0000      -0.043813        -1.1922
 106   1.0000      -0.041439        -1.1276
 107   1.0000      -0.032022        -0.8714
 108   1.0000      -0.026495        -0.7210
 109   1.0000      -0.014779        -0.4022
 110   1.0000      -0.003381        -0.0920
 111   1.0000      -0.000546        -0.0149
 112   1.0000       0.010096         0.2747
 113   1.0000       0.020094         0.5468
 114   1.0000       0.020932         0.5696
 115   1.0000       0.031618         0.8604
 116   1.0000       0.057843         1.5740
 117   0.0000       0.188655         5.1336
 118   0.0000       0.195302         5.3144
 119   0.0000       0.196678         5.3519
 120   0.0000       0.197505         5.3744
 121   0.0000       0.210192         5.7196

                 SPIN DOWN ORBITALS
  NO   OCC          E(Eh)            E(eV)
   0   1.0000    -196.634772     -5350.7042
   1   1.0000     -88.678710     -2413.0704
   2   1.0000     -88.678669     -2413.0693
   3   1.0000     -88.676913     -2413.0215
   4   1.0000     -88.676861     -2413.0201
   5   1.0000     -88.612901     -2411.2796
   6   1.0000     -88.612895     -2411.2795
   7   1.0000     -88.612126     -2411.2585
   8   1.0000     -88.612105     -2411.2580
   9   1.0000     -21.996573      -598.5572
  10   1.0000     -18.856660      -513.1158
  11   1.0000     -18.512464      -503.7498
  12   1.0000     -18.496917      -503.3267
  13   1.0000     -18.496210      -503.3075
  14   1.0000     -10.016547      -272.5641
  15   1.0000     -10.016500      -272.5628
  16   1.0000     -10.013012      -272.4679
  17   1.0000     -10.012969      -272.4667
  18   1.0000     -10.005820      -272.2722
  19   1.0000     -10.005783      -272.2712
  20   1.0000      -9.993015      -271.9238
  21   1.0000      -9.992973      -271.9226
  22   1.0000      -9.991495      -271.8824
  23   1.0000      -9.991458      -271.8814
  24   1.0000      -7.731399      -210.3821
  25   1.0000      -7.731374      -210.3814
  26   1.0000      -7.730932      -210.3693
  27   1.0000      -7.730871      -210.3677
  28   1.0000      -7.667927      -208.6549
  29   1.0000      -7.667925      -208.6548
  30   1.0000      -7.666566      -208.6179
  31   1.0000      -7.666533      -208.6170
  32   1.0000      -5.696672      -155.0143
  33   1.0000      -5.696655      -155.0139
  34   1.0000      -5.696277      -155.0036
  35   1.0000      -5.696214      -155.0019
  36   1.0000      -5.692930      -154.9125
  37   1.0000      -5.692899      -154.9117
  38   1.0000      -5.692111      -154.8902
  39   1.0000      -5.692054      -154.8887
  40   1.0000      -5.686154      -154.7281
  41   1.0000      -5.686120      -154.7272
  42   1.0000      -5.685601      -154.7131
  43   1.0000      -5.685545      -154.7115
  44   1.0000      -5.632265      -153.2617
  45   1.0000      -5.632262      -153.2616
  46   1.0000      -5.632116      -153.2577
  47   1.0000      -5.632087      -153.2569
  48   1.0000      -5.626800      -153.1130
  49   1.0000      -5.626786      -153.1126
  50   1.0000      -5.626060      -153.0929
  51   1.0000      -5.626052      -153.0927
  52   1.0000      -5.624849      -153.0599
  53   1.0000      -5.624834      -153.0595
  54   1.0000      -5.624206      -153.0424
  55   1.0000      -5.624177      -153.0416
  56   1.0000      -2.362957       -64.2993
  57   1.0000      -1.428787       -38.8793
  58   1.0000      -1.378014       -37.4977
  59   1.0000      -1.375028       -37.4164
  60   1.0000      -0.643322       -17.5057
  61   1.0000      -0.643236       -17.5034
  62   1.0000      -0.622252       -16.9323
  63   1.0000      -0.598262       -16.2795
  64   1.0000      -0.597945       -16.2709
  65   1.0000      -0.570763       -15.5313
  66   1.0000      -0.570638       -15.5279
  67   1.0000      -0.489458       -13.3188
  68   1.0000      -0.489417       -13.3177
  69   1.0000      -0.487297       -13.2600
  70   1.0000      -0.486153       -13.2289
  71   1.0000      -0.422792       -11.5048
  72   1.0000      -0.421865       -11.4795
  73   1.0000      -0.408232       -11.1086
  74   1.0000      -0.403932       -10.9916
  75   1.0000      -0.377947       -10.2845
  76   1.0000      -0.374769       -10.1980
  77   1.0000      -0.292217        -7.9516
  78   1.0000      -0.292129        -7.9492
  79   1.0000      -0.277471        -7.5504
  80   1.0000      -0.277348        -7.5470
  81   1.0000      -0.257012        -6.9936
  82   1.0000      -0.252975        -6.8838
  83   1.0000      -0.240221        -6.5367
  84   1.0000      -0.237510        -6.4630
  85   1.0000      -0.195991        -5.3332
  86   1.0000      -0.195665        -5.3243
  87   1.0000      -0.188229        -5.1220
  88   1.0000      -0.186493        -5.0747
  89   1.0000      -0.183012        -4.9800
  90   1.0000      -0.181719        -4.9448
  91   1.0000      -0.177173        -4.8211
  92   1.0000      -0.155172        -4.2225
  93   1.0000      -0.144224        -3.9245
  94   1.0000      -0.142761        -3.8847
  95   1.0000      -0.142216        -3.8699
  96   1.0000      -0.141559        -3.8520
  97   1.0000      -0.098392        -2.6774
  98   1.0000      -0.093856        -2.5539
  99   1.0000      -0.087501        -2.3810
 100   1.0000      -0.087400        -2.3783
 101   1.0000      -0.080149        -2.1810
 102   1.0000      -0.079495        -2.1632
 103   1.0000      -0.070821        -1.9271
 104   1.0000      -0.050542        -1.3753
 105   1.0000      -0.044408        -1.2084
 106   1.0000      -0.036353        -0.9892
 107   1.0000      -0.031161        -0.8479
 108   1.0000      -0.026309        -0.7159
 109   1.0000      -0.013225        -0.3599
 110   1.0000      -0.004727        -0.1286
 111   1.0000      -0.000254        -0.0069
 112   1.0000       0.011874         0.3231
 113   1.0000       0.020720         0.5638
 114   1.0000       0.031933         0.8689
 115   1.0000       0.057125         1.5545
 116   0.0000       0.179216         4.8767
 117   0.0000       0.189977         5.1695
 118   0.0000       0.195562         5.3215
 119   0.0000       0.196983         5.3602
 120   0.0000       0.197777         5.3818

MULLIKEN ATOMIC CHARGES AND SPIN POPULATIONS
--------------------------------------------
   0 V :    0.450386    1.176507
   1 S :   -0.267728   -0.028863
   2 S :   -0.244936   -0.020019
   3 S :   -0.245039   -0.020163
   4 S :   -0.268222   -0.028692
   5 O :   -0.510139   -0.133648
   6 C :   -0.057551    0.025187
   7 C :   -0.158431    0.001240
   8 C :   -0.158755    0.001252
   9 C :   -0.056652    0.025333
  10 S :   -0.073949    0.001717
  11 S :   -0.017794   -0.001242
  12 S :   -0.073959    0.001688
  13 S :   -0.017934   -0.001275
  14 C :   -0.373521   -0.000143
  15 C :   -0.307101    0.000475
  16 C :   -0.307364    0.000446
  17 C :   -0.372666   -0.000108
  18 C :   -0.080135    0.000190
  19 H :    0.149385   -0.000019
  20 H :    0.103731    0.000011
  21 H :    0.042638    0.000097
  22 H :    0.079021    0.000018
  23 H :    0.095122    0.000015
  24 H :    0.141452   -0.000160
  25 C :   -0.080376    0.000202
  26 H :    0.094926    0.000023
  27 H :    0.140894   -0.000169
  28 H :    0.078887    0.000011
  29 H :    0.042664    0.000093
  30 H :    0.149500   -0.000022
  31 H :    0.103649    0.000018
Sum of atomic charges         :   -2.0000000

LOEWDIN ATOMIC CHARGES AND SPIN POPULATIONS
-------------------------------------------
   0 V :   -0.282173    1.127427
   1 S :    0.070615   -0.022207
   2 S :    0.121369   -0.008687
   3 S :    0.121366   -0.008749
   4 S :    0.070246   -0.022095
   5 O :   -0.355344   -0.119303
   6 C :   -0.536287    0.024169
   7 C :   -0.554911    0.003518
   8 C :   -0.554859    0.003539
   9 C :   -0.535794    0.024201
  10 S :    0.325124    0.000725
  11 S :    0.345521   -0.001916
  12 S :    0.325008    0.000721
  13 S :    0.345516   -0.001945
  14 C :   -0.300410   -0.000065
  15 C :   -0.288601    0.000387
  16 C :   -0.288669    0.000366
  17 C :   -0.300429   -0.000050
  18 C :   -0.186269   -0.000042
  19 H :    0.067649    0.000037
  20 H :    0.047254    0.000007
  21 H :    0.045783    0.000049
  22 H :    0.053018    0.000028
  23 H :    0.045898   -0.000014
  24 H :    0.063087   -0.000085
  25 C :   -0.186288   -0.000044
  26 H :    0.045878   -0.000010
  27 H :    0.062911   -0.000087
  28 H :    0.053030    0.000026
  29 H :    0.045775    0.000050
  30 H :    0.067745    0.000037
  31 H :    0.047241    0.000011

  Mayer bond orders larger than 0.100000
B(  0-V ,  1-S ) :   0.6794 B(  0-V ,  2-S ) :   0.9024 B(  0-V ,  3-S ) :   0.9025
B(  0-V ,  4-S ) :   0.6784 B(  0-V ,  5-O ) :   2.0959 B(  1-S ,  8-C ) :   1.2111
B(  2-S ,  6-C ) :   1.0027 B(  3-S ,  9-C ) :   1.0025 B(  4-S ,  7-C ) :   1.2108
B(  6-C ,  7-C ) :   1.5163 B(  6-C , 10-S ) :   0.9360 B(  7-C , 11-S ) :   0.9729
B(  8-C ,  9-C ) :   1.5169 B(  8-C , 13-S ) :   0.9725 B(  9-C , 12-S ) :   0.9364
B( 10-S , 16-C ) :   0.9592 B( 11-S , 14-C ) :   1.0364 B( 12-S , 15-C ) :   0.9594
B( 13-S , 17-C ) :   1.0376 B( 14-C , 18-C ) :   0.8602 B( 14-C , 23-H ) :   0.9724
B( 14-C , 24-H ) :   0.9753 B( 15-C , 25-C ) :   0.8939 B( 15-C , 30-H ) :   0.9724
B( 15-C , 31-H ) :   0.9688 B( 16-C , 18-C ) :   0.8939 B( 16-C , 19-H ) :   0.9724
B( 16-C , 20-H ) :   0.9688 B( 17-C , 25-C ) :   0.8605 B( 17-C , 26-H ) :   0.9723
B( 17-C , 27-H ) :   0.9749 B( 18-C , 21-H ) :   0.9498 B( 18-C , 22-H ) :   0.9743
B( 25-C , 28-H ) :   0.9745 B( 25-C , 29-H ) :   0.9497

FINAL SINGLE POINT ENERGY     -4592.665842968770

DIPOLE MOMENT
-------------
                                X             Y             Z
Electronic contribution:     -8.86188     -18.84802      16.71324
Nuclear contribution   :      9.87409      20.99898     -18.62075
                        -----------------------------------------
Total Dipole Moment    :      1.01220       2.15096      -1.90751
                        -----------------------------------------
Magnitude (a.u.)       :      3.04791
Magnitude (Debye)      :      7.74718

Rotational constants in cm-1:     0.012777     0.002546     0.002430
Rotational constants in MHz :   383.038545    76.325912    72.842818

                             ****ORCA TERMINATED NORMALLY****
TOTAL RUN TIME: 0 days 0 hours 42 minutes 54 seconds 849 msec
