                         Program Version 5.0.4 -  RELEASE  -
|  1> ! nofrozencore ReducedPop printbasis
|  2> ! B3LYP TZVP
|  3>
|  4> %basis
|  5> newgto V "CP(PPP)" end
|  6> end
|  7>
|  8> %pal
|  9> nprocs 4
| 10> end
| 11>
| 12> % sym SymThresh 1e-2 end
| 13> * xyz -2 2
| 14> V 0.9983347666380322 -0.4944070080306415 0.06757864527330126
| 15> S 1.1848465301597904 1.2022354412132563 -1.6627010023047055
| 16> S 1.0005316675944438 1.3099404113024813 1.691747072026539
| 17> S -0.37308568516805435 -1.6611402893827658 -1.6242369350812167
| 18> S -0.5284165824561705 -1.5700666746378453 1.6879326392149065
| 19> O 2.443960085848578 -1.1707169064617595 0.16025124847131697
| 20> C 0.3320407973975318 0.5796638645111405 3.1553683984917864
| 21> C -0.32834551271503143 -0.6087799696024971 3.1597842273143724
| 22> C 0.6675004350775371 0.3753498583050152 -3.135757591138496
| 23> C -0.0032001865566757296 -0.8074240976524347 -3.129446574323031
| 24> S 0.530986213683527 1.5863977102868942 4.631323944658863
| 25> S -1.0433374814903726 -1.3226584964179755 4.6624025626119705
| 26> S -0.5649614889419841 -1.619952866316504 -4.646870874546806
| 27> S 1.0282832719993347 1.2786060774277561 -4.648206909801687
| 28> C -2.40863819706432 -0.16269131181149007 5.134655755069544
| 29> C -1.8633351124825985 -0.4912357505301026 -5.3328851786096605
| 30> C -1.2083641044673914 2.1253974314411757 4.932922309198369
| 31> C -0.6656040657212482 1.8017042465416397 -5.160527605203092
| 32> C -2.019860169294032 1.16168404202904 5.802663512937533
| 33> H -1.671116598279546 2.2719961099666035 3.9468511707584333
| 34> H -1.142233089180096 3.1078192669384093 5.426702270439526
| 35> H -2.954363426807293 1.6652712957949656 6.099019779577192
| 36> H -1.4615326009152503 0.9578883775323727 6.725955222474448
| 37> H -3.0262903457906205 -0.7528575985294714 5.83075177538951
| 38> H -3.0076308729573498 0.019829357283775096 4.230127116990284
| 39> C -1.3949237937180823 0.7848479810965077 -6.042105712647693
| 40> H -0.5389625630026504 2.7477689681718704 -5.710294140141234
| 41> H -1.2238087989031075 2.01793408911876 -4.2387666170991025
| 42> H -0.7479449712482151 0.517950876267032 -6.888253136301011
| 43> H -2.289025268568958 1.2711669406522121 -6.464821040263272
| 44> H -2.5519017948161427 -0.2488803692254023 -4.509768286591382
| 45> H -2.4102292928751634 -1.1247352451257384 -6.049801899107807
| 46> *
| 47>
| 48> % eprnmr
| 49> gtensor true
| 50> Nuclei = all H {aiso,adip,aorb,fgrad,rho}
| 51> Nuclei = all V {aiso,adip,aorb,fgrad,rho}
| 52> end
| 53>
| 54>                          ****END OF INPUT****

CARTESIAN COORDINATES (ANGSTROEM)
---------------------------------
  V      0.999376   -0.494955    0.067731
  S      1.185888    1.201687   -1.662548
  S      1.001573    1.309392    1.691900
  S     -0.372044   -1.661688   -1.624084
  S     -0.527375   -1.570615    1.688085
  O      2.445002   -1.171265    0.160404
  C      0.333082    0.579116    3.155521
  C     -0.327304   -0.609328    3.159937
  C      0.668542    0.374802   -3.135605
  C     -0.002159   -0.807972   -3.129294
  S      0.532028    1.585850    4.631477
  S     -1.042296   -1.323206    4.662555
  S     -0.563920   -1.620501   -4.646718
  S      1.029325    1.278058   -4.648054
  C     -2.407597   -0.163239    5.134808
  C     -1.862294   -0.491784   -5.332733
  C     -1.207323    2.124849    4.933075
  C     -0.664563    1.801156   -5.160375
  C     -2.018819    1.161136    5.802816
  H     -1.670075    2.271448    3.947004
  H     -1.141192    3.107271    5.426855
  H     -2.953322    1.664723    6.099172
  H     -1.460491    0.957340    6.726108
  H     -3.025249   -0.753406    5.830904
  H     -3.006589    0.019281    4.230280
  C     -1.393882    0.784300   -6.041953
  H     -0.537921    2.747221   -5.710142
  H     -1.222767    2.017386   -4.238614
  H     -0.746903    0.517403   -6.888101
  H     -2.287984    1.270619   -6.464668
  H     -2.550860   -0.249428   -4.509616
  H     -2.409188   -1.125283   -6.049649

 Total Charge           Charge          ....   -2
 Multiplicity           Mult            ....    2
 Number of Electrons    NEL             ....  233
 Basis Dimension        Dim             ....  517

ORBITAL ENERGIES
----------------
                 SPIN UP ORBITALS
  NO   OCC          E(Eh)            E(eV)
   0   1.0000    -196.640296     -5350.8545
   1   1.0000     -88.677753     -2413.0443
   2   1.0000     -88.677573     -2413.0394
   3   1.0000     -88.675488     -2412.9827
   4   1.0000     -88.675416     -2412.9808
   5   1.0000     -88.612456     -2411.2675
   6   1.0000     -88.612308     -2411.2635
   7   1.0000     -88.611733     -2411.2478
   8   1.0000     -88.611696     -2411.2468
   9   1.0000     -22.016087      -599.0882
  10   1.0000     -18.856886      -513.1220
  11   1.0000     -18.522913      -504.0341
  12   1.0000     -18.517138      -503.8769
  13   1.0000     -18.517097      -503.8758
  14   1.0000     -10.018893      -272.6280
  15   1.0000     -10.018764      -272.6244
  16   1.0000     -10.015739      -272.5421
  17   1.0000     -10.015636      -272.5393
  18   1.0000     -10.005754      -272.2704
  19   1.0000     -10.005661      -272.2679
  20   1.0000      -9.992577      -271.9119
  21   1.0000      -9.992409      -271.9073
  22   1.0000      -9.990666      -271.8598
  23   1.0000      -9.990628      -271.8588
  24   1.0000      -7.731026      -210.3719
  25   1.0000      -7.730889      -210.3682
  26   1.0000      -7.729418      -210.3282
  27   1.0000      -7.729352      -210.3264
  28   1.0000      -7.667009      -208.6299
  29   1.0000      -7.666887      -208.6266
  30   1.0000      -7.665988      -208.6021
  31   1.0000      -7.665972      -208.6017
  32   1.0000      -5.696343      -155.0054
  33   1.0000      -5.696211      -155.0018
  34   1.0000      -5.694599      -154.9579
  35   1.0000      -5.694527      -154.9560
  36   1.0000      -5.692346      -154.8966
  37   1.0000      -5.692201      -154.8927
  38   1.0000      -5.690824      -154.8552
  39   1.0000      -5.690760      -154.8534
  40   1.0000      -5.685804      -154.7186
  41   1.0000      -5.685657      -154.7146
  42   1.0000      -5.684132      -154.6731
  43   1.0000      -5.684068      -154.6714
  44   1.0000      -5.631823      -153.2497
  45   1.0000      -5.631694      -153.2462
  46   1.0000      -5.630873      -153.2239
  47   1.0000      -5.630857      -153.2234
  48   1.0000      -5.625465      -153.0767
  49   1.0000      -5.625343      -153.0734
  50   1.0000      -5.625003      -153.0641
  51   1.0000      -5.624860      -153.0602
  52   1.0000      -5.624418      -153.0482
  53   1.0000      -5.624403      -153.0478
  54   1.0000      -5.623983      -153.0364
  55   1.0000      -5.623954      -153.0356
  56   1.0000      -2.409699       -65.5712
  57   1.0000      -1.450841       -39.4794
  58   1.0000      -1.439526       -39.1715
  59   1.0000      -1.438435       -39.1418
  60   1.0000      -0.642716       -17.4892
  61   1.0000      -0.642644       -17.4872
  62   1.0000      -0.617844       -16.8124
  63   1.0000      -0.593389       -16.1469
  64   1.0000      -0.592941       -16.1347
  65   1.0000      -0.574784       -15.6407
  66   1.0000      -0.574736       -15.6394
  67   1.0000      -0.491183       -13.3658
  68   1.0000      -0.489293       -13.3143
  69   1.0000      -0.486965       -13.2510
  70   1.0000      -0.485765       -13.2183
  71   1.0000      -0.422676       -11.5016
  72   1.0000      -0.419853       -11.4248
  73   1.0000      -0.412053       -11.2125
  74   1.0000      -0.406835       -11.0705
  75   1.0000      -0.375845       -10.2273
  76   1.0000      -0.372742       -10.1428
  77   1.0000      -0.291288        -7.9263
  78   1.0000      -0.291096        -7.9211
  79   1.0000      -0.277186        -7.5426
  80   1.0000      -0.276903        -7.5349
  81   1.0000      -0.259917        -7.0727
  82   1.0000      -0.254939        -6.9372
  83   1.0000      -0.241314        -6.5665
  84   1.0000      -0.238616        -6.4931
  85   1.0000      -0.195189        -5.3114
  86   1.0000      -0.191959        -5.2235
  87   1.0000      -0.191864        -5.2209
  88   1.0000      -0.190971        -5.1966
  89   1.0000      -0.184609        -5.0235
  90   1.0000      -0.184339        -5.0161
  91   1.0000      -0.180927        -4.9233
  92   1.0000      -0.150828        -4.1042
  93   1.0000      -0.149690        -4.0733
  94   1.0000      -0.143293        -3.8992
  95   1.0000      -0.143160        -3.8956
  96   1.0000      -0.141543        -3.8516
  97   1.0000      -0.097723        -2.6592
  98   1.0000      -0.095786        -2.6065
  99   1.0000      -0.089429        -2.4335
 100   1.0000      -0.083307        -2.2669
 101   1.0000      -0.081499        -2.2177
 102   1.0000      -0.079587        -2.1657
 103   1.0000      -0.069389        -1.8882
 104   1.0000      -0.050257        -1.3676
 105   1.0000      -0.039343        -1.0706
 106   1.0000      -0.036823        -1.0020
 107   1.0000      -0.035857        -0.9757
 108   1.0000      -0.031608        -0.8601
 109   1.0000      -0.012890        -0.3507
 110   1.0000      -0.004293        -0.1168
 111   1.0000      -0.003233        -0.0880
 112   1.0000       0.006266         0.1705
 113   1.0000       0.010633         0.2894
 114   1.0000       0.016313         0.4439
 115   1.0000       0.033613         0.9147
 116   1.0000       0.059822         1.6278
 117   0.0000       0.187760         5.1092
 118   0.0000       0.195247         5.3130
 119   0.0000       0.196041         5.3345
 120   0.0000       0.196325         5.3423
 121   0.0000       0.211069         5.7435

                 SPIN DOWN ORBITALS
  NO   OCC          E(Eh)            E(eV)
   0   1.0000    -196.640436     -5350.8583
   1   1.0000     -88.677765     -2413.0447
   2   1.0000     -88.677586     -2413.0398
   3   1.0000     -88.675502     -2412.9831
   4   1.0000     -88.675430     -2412.9811
   5   1.0000     -88.612619     -2411.2720
   6   1.0000     -88.612471     -2411.2679
   7   1.0000     -88.611890     -2411.2521
   8   1.0000     -88.611853     -2411.2511
   9   1.0000     -22.001402      -598.6886
  10   1.0000     -18.860491      -513.2201
  11   1.0000     -18.517766      -503.8940
  12   1.0000     -18.501643      -503.4553
  13   1.0000     -18.500946      -503.4363
  14   1.0000     -10.018892      -272.6279
  15   1.0000     -10.018763      -272.6244
  16   1.0000     -10.015733      -272.5420
  17   1.0000     -10.015630      -272.5392
  18   1.0000     -10.005753      -272.2704
  19   1.0000     -10.005660      -272.2679
  20   1.0000      -9.992352      -271.9057
  21   1.0000      -9.992183      -271.9011
  22   1.0000      -9.990384      -271.8522
  23   1.0000      -9.990344      -271.8511
  24   1.0000      -7.731039      -210.3723
  25   1.0000      -7.730902      -210.3685
  26   1.0000      -7.729433      -210.3286
  27   1.0000      -7.729367      -210.3268
  28   1.0000      -7.667161      -208.6341
  29   1.0000      -7.667039      -208.6307
  30   1.0000      -7.666134      -208.6061
  31   1.0000      -7.666118      -208.6057
  32   1.0000      -5.696359      -155.0058
  33   1.0000      -5.696227      -155.0022
  34   1.0000      -5.694617      -154.9584
  35   1.0000      -5.694545      -154.9564
  36   1.0000      -5.692366      -154.8972
  37   1.0000      -5.692221      -154.8932
  38   1.0000      -5.690845      -154.8558
  39   1.0000      -5.690780      -154.8540
  40   1.0000      -5.685818      -154.7190
  41   1.0000      -5.685672      -154.7150
  42   1.0000      -5.684151      -154.6736
  43   1.0000      -5.684088      -154.6719
  44   1.0000      -5.632003      -153.2546
  45   1.0000      -5.631874      -153.2511
  46   1.0000      -5.631038      -153.2283
  47   1.0000      -5.631021      -153.2279
  48   1.0000      -5.625853      -153.0873
  49   1.0000      -5.625734      -153.0840
  50   1.0000      -5.625146      -153.0680
  51   1.0000      -5.625001      -153.0641
  52   1.0000      -5.624808      -153.0588
  53   1.0000      -5.624795      -153.0584
  54   1.0000      -5.624115      -153.0399
  55   1.0000      -5.624085      -153.0391
  56   1.0000      -2.365464       -64.3676
  57   1.0000      -1.431942       -38.9651
  58   1.0000      -1.378097       -37.4999
  59   1.0000      -1.377398       -37.4809
  60   1.0000      -0.642664       -17.4878
  61   1.0000      -0.642589       -17.4857
  62   1.0000      -0.625592       -17.0232
  63   1.0000      -0.593204       -16.1419
  64   1.0000      -0.592734       -16.1291
  65   1.0000      -0.574779       -15.6405
  66   1.0000      -0.574731       -15.6392
  67   1.0000      -0.491211       -13.3665
  68   1.0000      -0.489332       -13.3154
  69   1.0000      -0.486967       -13.2511
  70   1.0000      -0.485785       -13.2189
  71   1.0000      -0.422913       -11.5081
  72   1.0000      -0.420161       -11.4332
  73   1.0000      -0.412068       -11.2130
  74   1.0000      -0.406936       -11.0733
  75   1.0000      -0.375799       -10.2260
  76   1.0000      -0.372768       -10.1435
  77   1.0000      -0.291262        -7.9257
  78   1.0000      -0.291085        -7.9208
  79   1.0000      -0.277162        -7.5420
  80   1.0000      -0.276889        -7.5345
  81   1.0000      -0.259707        -7.0670
  82   1.0000      -0.254899        -6.9362
  83   1.0000      -0.241214        -6.5638
  84   1.0000      -0.238543        -6.4911
  85   1.0000      -0.194729        -5.2988
  86   1.0000      -0.191914        -5.2222
  87   1.0000      -0.191807        -5.2193
  88   1.0000      -0.190950        -5.1960
  89   1.0000      -0.184549        -5.0218
  90   1.0000      -0.184288        -5.0147
  91   1.0000      -0.178828        -4.8662
  92   1.0000      -0.150149        -4.0858
  93   1.0000      -0.149390        -4.0651
  94   1.0000      -0.143111        -3.8942
  95   1.0000      -0.142832        -3.8867
  96   1.0000      -0.141458        -3.8493
  97   1.0000      -0.096705        -2.6315
  98   1.0000      -0.094807        -2.5798
  99   1.0000      -0.089553        -2.4369
 100   1.0000      -0.083364        -2.2684
 101   1.0000      -0.081420        -2.2155
 102   1.0000      -0.081058        -2.2057
 103   1.0000      -0.070734        -1.9248
 104   1.0000      -0.046071        -1.2536
 105   1.0000      -0.039031        -1.0621
 106   1.0000      -0.036561        -0.9949
 107   1.0000      -0.034947        -0.9510
 108   1.0000      -0.031468        -0.8563
 109   1.0000      -0.012011        -0.3268
 110   1.0000      -0.005613        -0.1527
 111   1.0000      -0.002228        -0.0606
 112   1.0000       0.007126         0.1939
 113   1.0000       0.011590         0.3154
 114   1.0000       0.033870         0.9216
 115   1.0000       0.059025         1.6061
 116   0.0000       0.185215         5.0399
 117   0.0000       0.189010         5.1432
 118   0.0000       0.195815         5.3284
 119   0.0000       0.196073         5.3354
 120   0.0000       0.196641         5.3509

MULLIKEN ATOMIC CHARGES AND SPIN POPULATIONS
--------------------------------------------
   0 V :    0.447287    1.200245
   1 S :   -0.246859   -0.024126
   2 S :   -0.246365   -0.023949
   3 S :   -0.260515   -0.024341
   4 S :   -0.260755   -0.024214
   5 O :   -0.507286   -0.139707
   6 C :   -0.110366    0.010103
   7 C :   -0.121749    0.007689
   8 C :   -0.108508    0.010197
   9 C :   -0.123207    0.007647
  10 S :   -0.043341   -0.000163
  11 S :   -0.045325   -0.000201
  12 S :   -0.045143   -0.000204
  13 S :   -0.043619   -0.000233
  14 C :   -0.328426    0.000069
  15 C :   -0.329048    0.000072
  16 C :   -0.345702    0.000514
  17 C :   -0.345736    0.000565
  18 C :   -0.085556    0.000126
  19 H :    0.158039   -0.000146
  20 H :    0.101412    0.000045
  21 H :    0.044950    0.000041
  22 H :    0.079040    0.000019
  23 H :    0.098419    0.000001
  24 H :    0.135781   -0.000066
  25 C :   -0.084885    0.000130
  26 H :    0.101171    0.000055
  27 H :    0.158163   -0.000156
  28 H :    0.078925    0.000013
  29 H :    0.044953    0.000038
  30 H :    0.136068   -0.000067
  31 H :    0.098180    0.000005
Sum of atomic charges         :   -2.0000000

LOEWDIN ATOMIC CHARGES AND SPIN POPULATIONS
-------------------------------------------
   0 V :   -0.242256    1.154205
   1 S :    0.097877   -0.016091
   2 S :    0.098435   -0.015941
   3 S :    0.078422   -0.016770
   4 S :    0.078350   -0.016718
   5 O :   -0.352732   -0.125109
   6 C :   -0.554985    0.011247
   7 C :   -0.551683    0.008789
   8 C :   -0.554305    0.011199
   9 C :   -0.552038    0.008780
  10 S :    0.337632   -0.001061
  11 S :    0.334160   -0.001010
  12 S :    0.334227   -0.001013
  13 S :    0.337315   -0.001094
  14 C :   -0.296636    0.000079
  15 C :   -0.296769    0.000082
  16 C :   -0.292738    0.000247
  17 C :   -0.292740    0.000270
  18 C :   -0.185786   -0.000033
  19 H :    0.071373   -0.000022
  20 H :    0.047533    0.000015
  21 H :    0.046483    0.000017
  22 H :    0.053764    0.000012
  23 H :    0.048783   -0.000006
  24 H :    0.063066   -0.000030
  25 C :   -0.185754   -0.000035
  26 H :    0.047502    0.000020
  27 H :    0.071445   -0.000022
  28 H :    0.053766    0.000010
  29 H :    0.046490    0.000018
  30 H :    0.063049   -0.000030
  31 H :    0.048750   -0.000003

  Mayer bond orders larger than 0.100000
B(  0-V ,  1-S ) :   0.8063 B(  0-V ,  2-S ) :   0.8092 B(  0-V ,  3-S ) :   0.7726
B(  0-V ,  4-S ) :   0.7700 B(  0-V ,  5-O ) :   2.1073 B(  1-S ,  8-C ) :   1.1316
B(  2-S ,  6-C ) :   1.1302 B(  3-S ,  9-C ) :   1.1425 B(  4-S ,  7-C ) :   1.1432
B(  6-C ,  7-C ) :   1.5176 B(  6-C , 10-S ) :   0.9569 B(  7-C , 11-S ) :   0.9518
B(  8-C ,  9-C ) :   1.5178 B(  8-C , 13-S ) :   0.9563 B(  9-C , 12-S ) :   0.9524
B( 10-S , 16-C ) :   0.9895 B( 11-S , 14-C ) :   1.0171 B( 12-S , 15-C ) :   1.0176
B( 13-S , 17-C ) :   0.9898 B( 14-C , 18-C ) :   0.8779 B( 14-C , 23-H ) :   0.9701
B( 14-C , 24-H ) :   0.9738 B( 15-C , 25-C ) :   0.8773 B( 15-C , 30-H ) :   0.9737
B( 15-C , 31-H ) :   0.9700 B( 16-C , 18-C ) :   0.8782 B( 16-C , 19-H ) :   0.9753
B( 16-C , 20-H ) :   0.9677 B( 17-C , 25-C ) :   0.8782 B( 17-C , 26-H ) :   0.9678
B( 17-C , 27-H ) :   0.9751 B( 18-C , 21-H ) :   0.9522 B( 18-C , 22-H ) :   0.9737
B( 25-C , 28-H ) :   0.9738 B( 25-C , 29-H ) :   0.9521

FINAL SINGLE POINT ENERGY     -4592.721980327859

DIPOLE MOMENT
-------------
                                X             Y             Z
Electronic contribution:     23.55230     -12.46328       1.63049
Nuclear contribution   :    -26.21031      13.96952      -1.81499
                        -----------------------------------------
Total Dipole Moment    :     -2.65801       1.50624      -0.18449
                        -----------------------------------------
Magnitude (a.u.)       :      3.06069
Magnitude (Debye)      :      7.77965

Rotational constants in cm-1:     0.012765     0.002548     0.002431
Rotational constants in MHz :   382.689750    76.390051    72.867739

                             ****ORCA TERMINATED NORMALLY****
TOTAL RUN TIME: 0 days 0 hours 43 minutes 10 seconds 352 msec
