                         Program Version 5.0.4 -  RELEASE  -
|  1> ! nofrozencore ReducedPop printbasis
|  2> ! B3LYP TZVP
|  3>
|  4> %basis
|  5> newgto V "CP(PPP)" end
|  6> end
|  7>
|  8> %pal
|  9> nprocs 8
| 10> end
| 11>
| 12> % sym SymThresh 1e-2 end
| 13> * xyz -2 2
| 14> V -0.505498607910816 0.6531719364761173 -0.7491176817064633
| 15> S -1.707228458582216 0.7379823908836224 1.3780736042061337
| 16> S 1.2307127851189308 1.895463885166568 0.435295157355402
| 17> S -1.5840182630505748 -1.5476630202437511 -0.9514070693274403
| 18> S 1.4077325816473367 -0.32657679477596024 -1.9534102024877888
| 19> O -1.241900001485324 1.6608774687106855 -1.7498788613029579
| 20> C 2.668026907006208 1.7001142817491046 -0.5799861358762054
| 21> C 2.755032904421664 0.7449041443315673 -1.5441365492648587
| 22> C -2.9265132305956816 -0.5355295078141497 1.2287632984390284
| 23> C -2.8532191415952637 -1.508389402062845 0.28127055491799446
| 24> S 3.996951961848718 2.874511178520209 -0.2435823430732235
| 25> S 4.285053420332922 0.4254823938844219 -2.4488459261726754
| 26> S -4.001174893084947 -2.9011438874157083 0.2360066554699971
| 27> S -4.2730305156035095 -0.43671779908849606 2.4273574064058847
| 28> C 5.44168372331963 -0.11055688189155209 -1.1064472698825831
| 29> C -3.6551645172858143 -3.7599584144114497 1.8376239677407606
| 30> C 5.281537826488071 1.838721240663755 0.5871149974209471
| 31> C -3.9345973729988293 -1.8526410055585905 3.563209949263525
| 32> C 6.161019316056972 1.0029501937993284 -0.34183291359926016
| 33> H 4.769309195307037 1.2056294682644273 1.318254276552962
| 34> H 5.903918568147103 2.5530083256542815 1.1403320939216695
| 35> H 6.950016713959738 0.5353704796725645 0.26979760082411147
| 36> H 6.661966773020839 1.6648192792642749 -1.0579822560734624
| 37> H 6.182203629741958 -0.7406069192551986 -1.6144327968381593
| 38> H 4.870185207657179 -0.7482761432653021 -0.42543978202467914
| 39> C -4.389163747858509 -3.2246956826555833 3.068526391663119
| 40> H -4.46558341053816 -1.6015213248337972 4.489301748807154
| 41> H -2.862554724027527 -1.8476448393761589 3.7815838041799803
| 42> H -5.464899888245265 -3.1952446419369003 2.8600988264506575
| 43> H -4.24069726023908 -3.9457529072564417 3.8889088200572535
| 44> H -2.5717736922821173 -3.7396985599023442 1.9858289857464912
| 45> H -3.9502383814939632 -4.801297798117922 1.6624288115146333
| 46> *
| 47>
| 48> % eprnmr
| 49> gtensor true
| 50> Nuclei = all H {aiso,adip,aorb,fgrad,rho}
| 51> Nuclei = all V {aiso,adip,aorb,fgrad,rho}
| 52> end
| 53>
| 54>                          ****END OF INPUT****

CARTESIAN COORDINATES (ANGSTROEM)
---------------------------------
  V     -0.505964    0.653899   -0.749933
  S     -1.707693    0.738709    1.377259
  S      1.230248    1.896191    0.434480
  S     -1.584483   -1.546936   -0.952222
  S      1.407268   -0.325850   -1.954225
  O     -1.242365    1.661604   -1.750694
  C      2.667562    1.700841   -0.580801
  C      2.754568    0.745631   -1.544951
  C     -2.926978   -0.534803    1.227948
  C     -2.853684   -1.507663    0.280456
  S      3.996487    2.875238   -0.244397
  S      4.284588    0.426209   -2.449661
  S     -4.001640   -2.900417    0.235192
  S     -4.273495   -0.435991    2.426543
  C      5.441219   -0.109830   -1.107262
  C     -3.655629   -3.759232    1.836809
  C      5.281073    1.839448    0.586300
  C     -3.935062   -1.851914    3.562395
  C      6.160554    1.003677   -0.342648
  H      4.768844    1.206356    1.317439
  H      5.903454    2.553735    1.139517
  H      6.949552    0.536097    0.268983
  H      6.661502    1.665546   -1.058797
  H      6.181739   -0.739880   -1.615248
  H      4.869720   -0.747549   -0.426255
  C     -4.389629   -3.223969    3.067712
  H     -4.466048   -1.600794    4.488487
  H     -2.863020   -1.846918    3.780769
  H     -5.465365   -3.194518    2.859284
  H     -4.241162   -3.945026    3.888094
  H     -2.572239   -3.738972    1.985014
  H     -3.950703   -4.800571    1.661614

 Total Charge           Charge          ....   -2
 Multiplicity           Mult            ....    2
 Number of Electrons    NEL             ....  233
 Basis Dimension        Dim             ....  517

ORBITAL ENERGIES
----------------
                 SPIN UP ORBITALS
  NO   OCC          E(Eh)            E(eV)
   0   1.0000    -196.640792     -5350.8680
   1   1.0000     -88.677530     -2413.0383
   2   1.0000     -88.677312     -2413.0323
   3   1.0000     -88.675869     -2412.9931
   4   1.0000     -88.675828     -2412.9919
   5   1.0000     -88.612825     -2411.2776
   6   1.0000     -88.612798     -2411.2768
   7   1.0000     -88.611409     -2411.2390
   8   1.0000     -88.611338     -2411.2371
   9   1.0000     -22.016536      -599.1004
  10   1.0000     -18.856959      -513.1240
  11   1.0000     -18.523370      -504.0465
  12   1.0000     -18.517585      -503.8891
  13   1.0000     -18.517551      -503.8882
  14   1.0000     -10.016260      -272.5563
  15   1.0000     -10.016014      -272.5496
  16   1.0000     -10.015740      -272.5421
  17   1.0000     -10.015619      -272.5388
  18   1.0000     -10.004948      -272.2485
  19   1.0000     -10.004832      -272.2453
  20   1.0000      -9.992945      -271.9219
  21   1.0000      -9.992624      -271.9131
  22   1.0000      -9.990782      -271.8630
  23   1.0000      -9.990603      -271.8581
  24   1.0000      -7.731064      -210.3729
  25   1.0000      -7.730887      -210.3681
  26   1.0000      -7.729497      -210.3303
  27   1.0000      -7.729429      -210.3285
  28   1.0000      -7.667123      -208.6330
  29   1.0000      -7.667111      -208.6327
  30   1.0000      -7.665865      -208.5988
  31   1.0000      -7.665836      -208.5980
  32   1.0000      -5.696290      -155.0039
  33   1.0000      -5.696112      -154.9991
  34   1.0000      -5.694770      -154.9626
  35   1.0000      -5.694708      -154.9609
  36   1.0000      -5.692407      -154.8983
  37   1.0000      -5.692228      -154.8934
  38   1.0000      -5.690878      -154.8567
  39   1.0000      -5.690816      -154.8550
  40   1.0000      -5.685864      -154.7202
  41   1.0000      -5.685682      -154.7153
  42   1.0000      -5.684194      -154.6748
  43   1.0000      -5.684123      -154.6728
  44   1.0000      -5.631995      -153.2544
  45   1.0000      -5.631987      -153.2542
  46   1.0000      -5.630707      -153.2193
  47   1.0000      -5.630676      -153.2185
  48   1.0000      -5.625528      -153.0784
  49   1.0000      -5.625519      -153.0781
  50   1.0000      -5.625143      -153.0679
  51   1.0000      -5.625122      -153.0674
  52   1.0000      -5.624425      -153.0484
  53   1.0000      -5.624362      -153.0467
  54   1.0000      -5.623716      -153.0291
  55   1.0000      -5.623691      -153.0284
  56   1.0000      -2.410020       -65.5800
  57   1.0000      -1.451044       -39.4849
  58   1.0000      -1.439819       -39.1795
  59   1.0000      -1.438765       -39.1508
  60   1.0000      -0.643294       -17.5049
  61   1.0000      -0.643097       -17.4995
  62   1.0000      -0.617822       -16.8118
  63   1.0000      -0.593404       -16.1474
  64   1.0000      -0.592965       -16.1354
  65   1.0000      -0.575235       -15.6529
  66   1.0000      -0.574937       -15.6448
  67   1.0000      -0.491099       -13.3635
  68   1.0000      -0.489223       -13.3124
  69   1.0000      -0.487114       -13.2550
  70   1.0000      -0.485904       -13.2221
  71   1.0000      -0.423016       -11.5108
  72   1.0000      -0.420135       -11.4325
  73   1.0000      -0.412339       -11.2203
  74   1.0000      -0.407175       -11.0798
  75   1.0000      -0.376196       -10.2368
  76   1.0000      -0.373017       -10.1503
  77   1.0000      -0.292396        -7.9565
  78   1.0000      -0.292195        -7.9510
  79   1.0000      -0.277536        -7.5521
  80   1.0000      -0.277268        -7.5449
  81   1.0000      -0.260353        -7.0846
  82   1.0000      -0.255524        -6.9532
  83   1.0000      -0.241642        -6.5754
  84   1.0000      -0.238798        -6.4980
  85   1.0000      -0.195160        -5.3106
  86   1.0000      -0.192560        -5.2398
  87   1.0000      -0.192183        -5.2296
  88   1.0000      -0.191217        -5.2033
  89   1.0000      -0.184216        -5.0128
  90   1.0000      -0.184050        -5.0083
  91   1.0000      -0.180780        -4.9193
  92   1.0000      -0.150519        -4.0958
  93   1.0000      -0.150371        -4.0918
  94   1.0000      -0.144510        -3.9323
  95   1.0000      -0.142740        -3.8841
  96   1.0000      -0.140755        -3.8301
  97   1.0000      -0.097250        -2.6463
  98   1.0000      -0.096227        -2.6185
  99   1.0000      -0.089335        -2.4309
 100   1.0000      -0.082912        -2.2562
 101   1.0000      -0.081366        -2.2141
 102   1.0000      -0.079438        -2.1616
 103   1.0000      -0.068914        -1.8752
 104   1.0000      -0.049973        -1.3598
 105   1.0000      -0.038424        -1.0456
 106   1.0000      -0.037555        -1.0219
 107   1.0000      -0.036887        -1.0037
 108   1.0000      -0.031047        -0.8448
 109   1.0000      -0.013569        -0.3692
 110   1.0000      -0.003891        -0.1059
 111   1.0000      -0.003310        -0.0901
 112   1.0000       0.006812         0.1854
 113   1.0000       0.010154         0.2763
 114   1.0000       0.016042         0.4365
 115   1.0000       0.033684         0.9166
 116   1.0000       0.059810         1.6275
 117   0.0000       0.187725         5.1083
 118   0.0000       0.194818         5.3013
 119   0.0000       0.196312         5.3419
 120   0.0000       0.196905         5.3581
 121   0.0000       0.210796         5.7360

                 SPIN DOWN ORBITALS
  NO   OCC          E(Eh)            E(eV)
   0   1.0000    -196.640933     -5350.8718
   1   1.0000     -88.677544     -2413.0386
   2   1.0000     -88.677326     -2413.0327
   3   1.0000     -88.675882     -2412.9934
   4   1.0000     -88.675840     -2412.9923
   5   1.0000     -88.612982     -2411.2818
   6   1.0000     -88.612957     -2411.2811
   7   1.0000     -88.611573     -2411.2435
   8   1.0000     -88.611501     -2411.2415
   9   1.0000     -22.001824      -598.7001
  10   1.0000     -18.860572      -513.2223
  11   1.0000     -18.518210      -503.9061
  12   1.0000     -18.502045      -503.4662
  13   1.0000     -18.501387      -503.4483
  14   1.0000     -10.016257      -272.5562
  15   1.0000     -10.016011      -272.5495
  16   1.0000     -10.015737      -272.5421
  17   1.0000     -10.015615      -272.5387
  18   1.0000     -10.004948      -272.2485
  19   1.0000     -10.004831      -272.2453
  20   1.0000      -9.992700      -271.9152
  21   1.0000      -9.992376      -271.9064
  22   1.0000      -9.990525      -271.8560
  23   1.0000      -9.990345      -271.8511
  24   1.0000      -7.731079      -210.3733
  25   1.0000      -7.730902      -210.3685
  26   1.0000      -7.729510      -210.3307
  27   1.0000      -7.729442      -210.3288
  28   1.0000      -7.667270      -208.6370
  29   1.0000      -7.667257      -208.6367
  30   1.0000      -7.666017      -208.6029
  31   1.0000      -7.665988      -208.6021
  32   1.0000      -5.696307      -155.0044
  33   1.0000      -5.696129      -154.9995
  34   1.0000      -5.694786      -154.9630
  35   1.0000      -5.694724      -154.9613
  36   1.0000      -5.692428      -154.8988
  37   1.0000      -5.692248      -154.8940
  38   1.0000      -5.690898      -154.8572
  39   1.0000      -5.690835      -154.8555
  40   1.0000      -5.685882      -154.7207
  41   1.0000      -5.685701      -154.7158
  42   1.0000      -5.684209      -154.6752
  43   1.0000      -5.684137      -154.6732
  44   1.0000      -5.632165      -153.2590
  45   1.0000      -5.632155      -153.2587
  46   1.0000      -5.630882      -153.2241
  47   1.0000      -5.630850      -153.2232
  48   1.0000      -5.625905      -153.0886
  49   1.0000      -5.625903      -153.0886
  50   1.0000      -5.625281      -153.0717
  51   1.0000      -5.625265      -153.0713
  52   1.0000      -5.624816      -153.0590
  53   1.0000      -5.624755      -153.0574
  54   1.0000      -5.623865      -153.0331
  55   1.0000      -5.623838      -153.0324
  56   1.0000      -2.365709       -64.3742
  57   1.0000      -1.432094       -38.9693
  58   1.0000      -1.378258       -37.5043
  59   1.0000      -1.377658       -37.4880
  60   1.0000      -0.643245       -17.5036
  61   1.0000      -0.643047       -17.4982
  62   1.0000      -0.625602       -17.0235
  63   1.0000      -0.593222       -16.1424
  64   1.0000      -0.592761       -16.1298
  65   1.0000      -0.575229       -15.6528
  66   1.0000      -0.574931       -15.6447
  67   1.0000      -0.491126       -13.3642
  68   1.0000      -0.489262       -13.3135
  69   1.0000      -0.487122       -13.2553
  70   1.0000      -0.485928       -13.2228
  71   1.0000      -0.423263       -11.5176
  72   1.0000      -0.420451       -11.4411
  73   1.0000      -0.412356       -11.2208
  74   1.0000      -0.407278       -11.0826
  75   1.0000      -0.376153       -10.2356
  76   1.0000      -0.373050       -10.1512
  77   1.0000      -0.292372        -7.9558
  78   1.0000      -0.292185        -7.9508
  79   1.0000      -0.277512        -7.5515
  80   1.0000      -0.277255        -7.5445
  81   1.0000      -0.260154        -7.0791
  82   1.0000      -0.255490        -6.9522
  83   1.0000      -0.241540        -6.5726
  84   1.0000      -0.238726        -6.4961
  85   1.0000      -0.194733        -5.2990
  86   1.0000      -0.192496        -5.2381
  87   1.0000      -0.192139        -5.2284
  88   1.0000      -0.191182        -5.2023
  89   1.0000      -0.184161        -5.0113
  90   1.0000      -0.184002        -5.0069
  91   1.0000      -0.178676        -4.8620
  92   1.0000      -0.150107        -4.0846
  93   1.0000      -0.149802        -4.0763
  94   1.0000      -0.144328        -3.9274
  95   1.0000      -0.142432        -3.8758
  96   1.0000      -0.140674        -3.8279
  97   1.0000      -0.096410        -2.6234
  98   1.0000      -0.095091        -2.5876
  99   1.0000      -0.089430        -2.4335
 100   1.0000      -0.082904        -2.2559
 101   1.0000      -0.081350        -2.2137
 102   1.0000      -0.081036        -2.2051
 103   1.0000      -0.070202        -1.9103
 104   1.0000      -0.045851        -1.2477
 105   1.0000      -0.038430        -1.0457
 106   1.0000      -0.036992        -1.0066
 107   1.0000      -0.036074        -0.9816
 108   1.0000      -0.030828        -0.8389
 109   1.0000      -0.012704        -0.3457
 110   1.0000      -0.005232        -0.1424
 111   1.0000      -0.002207        -0.0600
 112   1.0000       0.007590         0.2065
 113   1.0000       0.011157         0.3036
 114   1.0000       0.033943         0.9236
 115   1.0000       0.059011         1.6058
 116   0.0000       0.185227         5.0403
 117   0.0000       0.189055         5.1445
 118   0.0000       0.195554         5.3213
 119   0.0000       0.196358         5.3432
 120   0.0000       0.197157         5.3649

MULLIKEN ATOMIC CHARGES AND SPIN POPULATIONS
--------------------------------------------
   0 V :    0.450251    1.201963
   1 S :   -0.251705   -0.025526
   2 S :   -0.252189   -0.025482
   3 S :   -0.257162   -0.023427
   4 S :   -0.257564   -0.023214
   5 O :   -0.507434   -0.140259
   6 C :   -0.129278    0.009377
   7 C :   -0.103124    0.008360
   8 C :   -0.126817    0.009346
   9 C :   -0.105010    0.008448
  10 S :   -0.047008   -0.000029
  11 S :   -0.042159   -0.000348
  12 S :   -0.042499   -0.000316
  13 S :   -0.046923   -0.000112
  14 C :   -0.350137    0.000246
  15 C :   -0.348864    0.000261
  16 C :   -0.324721    0.000298
  17 C :   -0.325879    0.000350
  18 C :   -0.085054    0.000149
  19 H :    0.140779   -0.000124
  20 H :    0.100848    0.000035
  21 H :    0.044686    0.000034
  22 H :    0.078624    0.000016
  23 H :    0.100378    0.000011
  24 H :    0.153739   -0.000087
  25 C :   -0.084329    0.000144
  26 H :    0.100926    0.000044
  27 H :    0.141163   -0.000129
  28 H :    0.078452    0.000011
  29 H :    0.044563    0.000032
  30 H :    0.152921   -0.000090
  31 H :    0.100529    0.000017
Sum of atomic charges         :   -2.0000000

LOEWDIN ATOMIC CHARGES AND SPIN POPULATIONS
-------------------------------------------
   0 V :   -0.238004    1.155935
   1 S :    0.089339   -0.017248
   2 S :    0.088829   -0.017170
   3 S :    0.083997   -0.016024
   4 S :    0.083217   -0.015946
   5 O :   -0.352961   -0.125669
   6 C :   -0.556869    0.010277
   7 C :   -0.547361    0.009569
   8 C :   -0.555769    0.010154
   9 C :   -0.548364    0.009695
  10 S :    0.336884   -0.000906
  11 S :    0.334456   -0.001148
  12 S :    0.334979   -0.001132
  13 S :    0.336933   -0.000957
  14 C :   -0.292714    0.000159
  15 C :   -0.292961    0.000160
  16 C :   -0.294667    0.000162
  17 C :   -0.294645    0.000186
  18 C :   -0.185154   -0.000036
  19 H :    0.064317   -0.000031
  20 H :    0.047516    0.000002
  21 H :    0.046768    0.000017
  22 H :    0.053562    0.000012
  23 H :    0.047595    0.000011
  24 H :    0.068419   -0.000026
  25 C :   -0.185074   -0.000039
  26 H :    0.047454    0.000008
  27 H :    0.064420   -0.000031
  28 H :    0.053547    0.000010
  29 H :    0.046750    0.000018
  30 H :    0.068048   -0.000025
  31 H :    0.047511    0.000013

  Mayer bond orders larger than 0.100000
B(  0-V ,  1-S ) :   0.7941 B(  0-V ,  2-S ) :   0.7976 B(  0-V ,  3-S ) :   0.7834
B(  0-V ,  4-S ) :   0.7778 B(  0-V ,  5-O ) :   2.1072 B(  1-S ,  8-C ) :   1.1322
B(  2-S ,  6-C ) :   1.1296 B(  3-S ,  9-C ) :   1.1425 B(  4-S ,  7-C ) :   1.1455
B(  6-C ,  7-C ) :   1.5177 B(  6-C , 10-S ) :   0.9528 B(  7-C , 11-S ) :   0.9540
B(  8-C ,  9-C ) :   1.5182 B(  8-C , 13-S ) :   0.9528 B(  9-C , 12-S ) :   0.9540
B( 10-S , 16-C ) :   1.0072 B( 11-S , 14-C ) :   1.0025 B( 12-S , 15-C ) :   1.0030
B( 13-S , 17-C ) :   1.0074 B( 14-C , 18-C ) :   0.8789 B( 14-C , 23-H ) :   0.9710
B( 14-C , 24-H ) :   0.9750 B( 15-C , 25-C ) :   0.8784 B( 15-C , 30-H ) :   0.9750
B( 15-C , 31-H ) :   0.9709 B( 16-C , 18-C ) :   0.8787 B( 16-C , 19-H ) :   0.9750
B( 16-C , 20-H ) :   0.9686 B( 17-C , 25-C ) :   0.8789 B( 17-C , 26-H ) :   0.9690
B( 17-C , 27-H ) :   0.9749 B( 18-C , 21-H ) :   0.9527 B( 18-C , 22-H ) :   0.9736
B( 25-C , 28-H ) :   0.9737 B( 25-C , 29-H ) :   0.9527

FINAL SINGLE POINT ENERGY     -4592.723414293854

DIPOLE MOMENT
-------------
                                X             Y             Z
Electronic contribution:    -12.00262      15.00178     -18.52924
Nuclear contribution   :     13.38797     -16.76643      20.63230
                        -----------------------------------------
Total Dipole Moment    :      1.38535      -1.76465       2.10306
                        -----------------------------------------
Magnitude (a.u.)       :      3.07507
Magnitude (Debye)      :      7.81620

Rotational constants in cm-1:     0.012749     0.002548     0.002431
Rotational constants in MHz :   382.218789    76.392936    72.867974

                             ****ORCA TERMINATED NORMALLY****
TOTAL RUN TIME: 0 days 0 hours 27 minutes 31 seconds 100 msec
