                         Program Version 5.0.4 -  RELEASE  -
|  1> ! nofrozencore ReducedPop printbasis
|  2> ! B3LYP TZVP
|  3>
|  4> %basis
|  5> newgto V "CP(PPP)" end
|  6> end
|  7>
|  8> %pal
|  9> nprocs 4
| 10> end
| 11>
| 12> % sym SymThresh 1e-2 end
| 13> * xyz -2 2
| 14> V -0.9083999513718877 0.6383470462888503 -0.05605876148161477
| 15> S 0.7888462896785349 1.9241055877487185 1.1149987459300426
| 16> S 0.37105434405850696 0.9635915516431065 -2.1197237353304654
| 17> S -0.9903368226051701 -0.53291568798791 2.0613344364225976
| 18> S -1.4361954486698865 -1.4781055675820207 -1.167400610577164
| 19> O -2.2138310501633462 1.5538545642043635 -0.16996536498334883
| 20> C -0.03681866735829643 -0.34672211630634414 -3.207952910613248
| 21> C -0.799042676121994 -1.3837402314791662 -2.802093786303339
| 22> C 0.722261467147149 1.434749998316197 2.796829754047271
| 23> C -0.03441875605000118 0.3928337477315444 3.201293054199374
| 24> S 0.3363760317451752 -0.037638223560401016 -4.936568955400258
| 25> S -1.508093093368921 -2.5494954576164695 -3.9590482116786534
| 26> S -0.35025853245774463 0.04910909439901043 4.9293885045669565
| 27> S 1.4753978657108069 2.5717530869805665 3.950583482298775
| 28> C 0.05364077686924332 -3.408980379262736 -4.349989305285652
| 29> C 1.3232111410431895 -0.5596553863028393 5.342425138999648
| 30> C 1.5123383848714225 -1.4214587914125518 -5.120781100233681
| 31> C 2.7676039676074287 1.4395405580354697 4.5720847613762094
| 32> C 0.8044710527146025 -2.7230728500343693 -5.487963209171774
| 33> H 2.048797154589238 -1.5070978333654523 -4.169707430809888
| 34> H 2.2385630519918047 -1.155852131144849 -5.901872871375412
| 35> H 1.5561353891304766 -3.4320951882712776 -5.895937671433263
| 36> H 0.08694456781084442 -2.5115872047433427 -6.300188342673868
| 37> H -0.1834244902758988 -4.444847973173001 -4.62752194395174
| 38> H 0.6436231700216827 -3.4282561673543994 -3.428127616817927
| 39> C 2.2738515006814173 0.5710033650009173 5.72544873856517
| 40> H 3.6149671784706507 2.052168787593898 4.904003414545439
| 41> H 3.096889529862337 0.8358595005391565 3.721574749863352
| 42> H 1.7662147811728937 1.2196239364779322 6.457273304456104
| 43> H 3.153761505111074 0.13290349991171582 6.23767383334619
| 44> H 1.6828969592355436 -1.1133741454665398 4.470176431774747
| 45> H 1.2259938214973154 -1.2642224988431403 6.178122186872821
| 46> *
| 47>
| 48> % eprnmr
| 49> gtensor true
| 50> Nuclei = all H {aiso,adip,aorb,fgrad,rho}
| 51> Nuclei = all V {aiso,adip,aorb,fgrad,rho}
| 52> end
| 53>
| 54>                          ****END OF INPUT****

CARTESIAN COORDINATES (ANGSTROEM)
---------------------------------
  V     -0.909374    0.639007   -0.056211
  S      0.787872    1.924766    1.114847
  S      0.370080    0.964252   -2.119876
  S     -0.991311   -0.532256    2.061183
  S     -1.437170   -1.477446   -1.167552
  O     -2.214805    1.554515   -0.170117
  C     -0.037793   -0.346062   -3.208105
  C     -0.800017   -1.383080   -2.802246
  C      0.721287    1.435410    2.796678
  C     -0.035393    0.393494    3.201141
  S      0.335402   -0.036978   -4.936721
  S     -1.509068   -2.548835   -3.959200
  S     -0.351233    0.049769    4.929237
  S      1.474423    2.572413    3.950432
  C      0.052666   -3.408320   -4.350141
  C      1.322237   -0.558995    5.342273
  C      1.511364   -1.420799   -5.120933
  C      2.766630    1.440201    4.571933
  C      0.803497   -2.722413   -5.488115
  H      2.047823   -1.506438   -4.169859
  H      2.237589   -1.155192   -5.902025
  H      1.555161   -3.431435   -5.896089
  H      0.085970   -2.510927   -6.300340
  H     -0.184399   -4.444188   -4.627674
  H      0.642649   -3.427596   -3.428279
  C      2.272877    0.571663    5.725297
  H      3.613993    2.052829    4.903852
  H      3.095915    0.836520    3.721423
  H      1.765240    1.220284    6.457122
  H      3.152787    0.133564    6.237522
  H      1.681923   -1.112714    4.470025
  H      1.225019   -1.263562    6.177970

 Total Charge           Charge          ....   -2
 Multiplicity           Mult            ....    2
 Number of Electrons    NEL             ....  233
 Basis Dimension        Dim             ....  517

ORBITAL ENERGIES
----------------
                 SPIN UP ORBITALS
  NO   OCC          E(Eh)            E(eV)
   0   1.0000    -196.637549     -5350.7797
   1   1.0000     -88.675020     -2412.9700
   2   1.0000     -88.674420     -2412.9536
   3   1.0000     -88.674173     -2412.9469
   4   1.0000     -88.673223     -2412.9211
   5   1.0000     -88.609644     -2411.1910
   6   1.0000     -88.609529     -2411.1879
   7   1.0000     -88.608623     -2411.1632
   8   1.0000     -88.608160     -2411.1506
   9   1.0000     -22.013503      -599.0179
  10   1.0000     -18.854726      -513.0632
  11   1.0000     -18.520319      -503.9635
  12   1.0000     -18.514561      -503.8068
  13   1.0000     -18.514523      -503.8058
  14   1.0000     -10.012382      -272.4508
  15   1.0000     -10.012142      -272.4442
  16   1.0000     -10.011362      -272.4230
  17   1.0000     -10.010936      -272.4114
  18   1.0000     -10.001147      -272.1450
  19   1.0000     -10.000044      -272.1150
  20   1.0000      -9.986418      -271.7442
  21   1.0000      -9.985637      -271.7230
  22   1.0000      -9.985477      -271.7186
  23   1.0000      -9.984643      -271.6960
  24   1.0000      -7.729521      -210.3310
  25   1.0000      -7.729036      -210.3178
  26   1.0000      -7.728682      -210.3081
  27   1.0000      -7.727900      -210.2869
  28   1.0000      -7.664644      -208.5656
  29   1.0000      -7.664632      -208.5652
  30   1.0000      -7.663375      -208.5310
  31   1.0000      -7.663070      -208.5227
  32   1.0000      -5.694536      -154.9562
  33   1.0000      -5.694050      -154.9430
  34   1.0000      -5.693663      -154.9324
  35   1.0000      -5.692876      -154.9110
  36   1.0000      -5.691080      -154.8621
  37   1.0000      -5.690573      -154.8484
  38   1.0000      -5.690307      -154.8411
  39   1.0000      -5.689489      -154.8189
  40   1.0000      -5.684150      -154.6736
  41   1.0000      -5.683661      -154.6603
  42   1.0000      -5.683278      -154.6498
  43   1.0000      -5.682498      -154.6286
  44   1.0000      -5.629375      -153.1831
  45   1.0000      -5.629350      -153.1824
  46   1.0000      -5.628167      -153.1502
  47   1.0000      -5.627815      -153.1406
  48   1.0000      -5.622974      -153.0089
  49   1.0000      -5.622931      -153.0077
  50   1.0000      -5.622755      -153.0029
  51   1.0000      -5.622738      -153.0025
  52   1.0000      -5.621758      -152.9758
  53   1.0000      -5.621438      -152.9671
  54   1.0000      -5.621428      -152.9668
  55   1.0000      -5.621171      -152.9598
  56   1.0000      -2.407176       -65.5026
  57   1.0000      -1.448524       -39.4163
  58   1.0000      -1.437431       -39.1145
  59   1.0000      -1.435520       -39.0625
  60   1.0000      -0.649932       -17.6855
  61   1.0000      -0.649290       -17.6681
  62   1.0000      -0.616067       -16.7640
  63   1.0000      -0.594762       -16.1843
  64   1.0000      -0.592522       -16.1233
  65   1.0000      -0.580945       -15.8083
  66   1.0000      -0.580220       -15.7886
  67   1.0000      -0.491355       -13.3704
  68   1.0000      -0.488589       -13.2952
  69   1.0000      -0.485845       -13.2205
  70   1.0000      -0.483257       -13.1501
  71   1.0000      -0.420461       -11.4413
  72   1.0000      -0.417412       -11.3584
  73   1.0000      -0.409269       -11.1368
  74   1.0000      -0.404354       -11.0030
  75   1.0000      -0.378958       -10.3120
  76   1.0000      -0.376043       -10.2326
  77   1.0000      -0.289073        -7.8661
  78   1.0000      -0.287566        -7.8251
  79   1.0000      -0.278142        -7.5686
  80   1.0000      -0.276375        -7.5205
  81   1.0000      -0.261718        -7.1217
  82   1.0000      -0.258477        -7.0335
  83   1.0000      -0.236165        -6.4264
  84   1.0000      -0.231349        -6.2953
  85   1.0000      -0.194850        -5.3021
  86   1.0000      -0.194281        -5.2867
  87   1.0000      -0.193472        -5.2646
  88   1.0000      -0.190171        -5.1748
  89   1.0000      -0.183461        -4.9922
  90   1.0000      -0.181423        -4.9368
  91   1.0000      -0.179178        -4.8757
  92   1.0000      -0.152869        -4.1598
  93   1.0000      -0.150056        -4.0832
  94   1.0000      -0.145829        -3.9682
  95   1.0000      -0.144491        -3.9318
  96   1.0000      -0.142673        -3.8823
  97   1.0000      -0.098174        -2.6714
  98   1.0000      -0.096464        -2.6249
  99   1.0000      -0.089472        -2.4347
 100   1.0000      -0.085875        -2.3368
 101   1.0000      -0.085425        -2.3245
 102   1.0000      -0.078540        -2.1372
 103   1.0000      -0.071007        -1.9322
 104   1.0000      -0.046790        -1.2732
 105   1.0000      -0.036821        -1.0020
 106   1.0000      -0.036043        -0.9808
 107   1.0000      -0.031051        -0.8449
 108   1.0000      -0.025694        -0.6992
 109   1.0000      -0.015051        -0.4096
 110   1.0000      -0.005020        -0.1366
 111   1.0000      -0.001203        -0.0327
 112   1.0000       0.008063         0.2194
 113   1.0000       0.017153         0.4668
 114   1.0000       0.017702         0.4817
 115   1.0000       0.036671         0.9979
 116   1.0000       0.062523         1.7013
 117   0.0000       0.190931         5.1955
 118   0.0000       0.194033         5.2799
 119   0.0000       0.198646         5.4054
 120   0.0000       0.199458         5.4275
 121   0.0000       0.213224         5.8021

                 SPIN DOWN ORBITALS
  NO   OCC          E(Eh)            E(eV)
   0   1.0000    -196.637676     -5350.7832
   1   1.0000     -88.675034     -2412.9703
   2   1.0000     -88.674433     -2412.9540
   3   1.0000     -88.674188     -2412.9473
   4   1.0000     -88.673237     -2412.9214
   5   1.0000     -88.609799     -2411.1952
   6   1.0000     -88.609683     -2411.1920
   7   1.0000     -88.608776     -2411.1674
   8   1.0000     -88.608313     -2411.1548
   9   1.0000     -21.999013      -598.6236
  10   1.0000     -18.858230      -513.1585
  11   1.0000     -18.515206      -503.8244
  12   1.0000     -18.499784      -503.4047
  13   1.0000     -18.498109      -503.3591
  14   1.0000     -10.012380      -272.4507
  15   1.0000     -10.012140      -272.4442
  16   1.0000     -10.011361      -272.4230
  17   1.0000     -10.010935      -272.4114
  18   1.0000     -10.001146      -272.1450
  19   1.0000     -10.000043      -272.1150
  20   1.0000      -9.986153      -271.7370
  21   1.0000      -9.985377      -271.7159
  22   1.0000      -9.985238      -271.7121
  23   1.0000      -9.984405      -271.6895
  24   1.0000      -7.729536      -210.3314
  25   1.0000      -7.729051      -210.3182
  26   1.0000      -7.728698      -210.3086
  27   1.0000      -7.727915      -210.2873
  28   1.0000      -7.664787      -208.5695
  29   1.0000      -7.664774      -208.5691
  30   1.0000      -7.663517      -208.5349
  31   1.0000      -7.663211      -208.5266
  32   1.0000      -5.694555      -154.9567
  33   1.0000      -5.694068      -154.9435
  34   1.0000      -5.693682      -154.9330
  35   1.0000      -5.692895      -154.9115
  36   1.0000      -5.691100      -154.8627
  37   1.0000      -5.690594      -154.8489
  38   1.0000      -5.690328      -154.8417
  39   1.0000      -5.689510      -154.8194
  40   1.0000      -5.684167      -154.6740
  41   1.0000      -5.683678      -154.6607
  42   1.0000      -5.683297      -154.6504
  43   1.0000      -5.682516      -154.6291
  44   1.0000      -5.629548      -153.1878
  45   1.0000      -5.629525      -153.1872
  46   1.0000      -5.628335      -153.1548
  47   1.0000      -5.627983      -153.1452
  48   1.0000      -5.623348      -153.0191
  49   1.0000      -5.623299      -153.0177
  50   1.0000      -5.622886      -153.0065
  51   1.0000      -5.622870      -153.0061
  52   1.0000      -5.622133      -152.9860
  53   1.0000      -5.621802      -152.9770
  54   1.0000      -5.621565      -152.9706
  55   1.0000      -5.621297      -152.9633
  56   1.0000      -2.363506       -64.3143
  57   1.0000      -1.429694       -38.9040
  58   1.0000      -1.377416       -37.4814
  59   1.0000      -1.374836       -37.4112
  60   1.0000      -0.649860       -17.6836
  61   1.0000      -0.649231       -17.6665
  62   1.0000      -0.623567       -16.9681
  63   1.0000      -0.594568       -16.1790
  64   1.0000      -0.592352       -16.1187
  65   1.0000      -0.580938       -15.8081
  66   1.0000      -0.580223       -15.7887
  67   1.0000      -0.491385       -13.3713
  68   1.0000      -0.488649       -13.2968
  69   1.0000      -0.485833       -13.2202
  70   1.0000      -0.483290       -13.1510
  71   1.0000      -0.420673       -11.4471
  72   1.0000      -0.417685       -11.3658
  73   1.0000      -0.409229       -11.1357
  74   1.0000      -0.404407       -11.0045
  75   1.0000      -0.378884       -10.3100
  76   1.0000      -0.376037       -10.2325
  77   1.0000      -0.289052        -7.8655
  78   1.0000      -0.287555        -7.8248
  79   1.0000      -0.278116        -7.5679
  80   1.0000      -0.276358        -7.5201
  81   1.0000      -0.261563        -7.1175
  82   1.0000      -0.258451        -7.0328
  83   1.0000      -0.235973        -6.4211
  84   1.0000      -0.231235        -6.2922
  85   1.0000      -0.194831        -5.3016
  86   1.0000      -0.194270        -5.2863
  87   1.0000      -0.192962        -5.2508
  88   1.0000      -0.190108        -5.1731
  89   1.0000      -0.182947        -4.9782
  90   1.0000      -0.180954        -4.9240
  91   1.0000      -0.177916        -4.8413
  92   1.0000      -0.152144        -4.1401
  93   1.0000      -0.149781        -4.0757
  94   1.0000      -0.145642        -3.9631
  95   1.0000      -0.144269        -3.9257
  96   1.0000      -0.142588        -3.8800
  97   1.0000      -0.097659        -2.6574
  98   1.0000      -0.094764        -2.5787
  99   1.0000      -0.089554        -2.4369
 100   1.0000      -0.085330        -2.3219
 101   1.0000      -0.084895        -2.3101
 102   1.0000      -0.080061        -2.1786
 103   1.0000      -0.072148        -1.9632
 104   1.0000      -0.042912        -1.1677
 105   1.0000      -0.036598        -0.9959
 106   1.0000      -0.035449        -0.9646
 107   1.0000      -0.030306        -0.8247
 108   1.0000      -0.025670        -0.6985
 109   1.0000      -0.014295        -0.3890
 110   1.0000      -0.006365        -0.1732
 111   1.0000      -0.000537        -0.0146
 112   1.0000       0.009388         0.2554
 113   1.0000       0.018189         0.4950
 114   1.0000       0.035591         0.9685
 115   1.0000       0.061759         1.6805
 116   0.0000       0.185066         5.0359
 117   0.0000       0.191756         5.2179
 118   0.0000       0.195222         5.3123
 119   0.0000       0.198770         5.4088
 120   0.0000       0.199709         5.4343

MULLIKEN ATOMIC CHARGES AND SPIN POPULATIONS
--------------------------------------------
   0 V :    0.404307    1.188235
   1 S :   -0.242925   -0.021702
   2 S :   -0.248521   -0.021182
   3 S :   -0.241184   -0.021339
   4 S :   -0.249726   -0.021262
   5 O :   -0.507912   -0.135319
   6 C :   -0.119451    0.007707
   7 C :   -0.115305    0.007876
   8 C :   -0.117271    0.008453
   9 C :   -0.117776    0.008760
  10 S :   -0.037585   -0.000383
  11 S :   -0.037667   -0.000286
  12 S :   -0.037373   -0.000153
  13 S :   -0.036850   -0.000169
  14 C :   -0.352097    0.000222
  15 C :   -0.350788    0.000265
  16 C :   -0.353256    0.000203
  17 C :   -0.350393    0.000284
  18 C :   -0.096532    0.000009
  19 H :    0.158880   -0.000108
  20 H :    0.106614   -0.000031
  21 H :    0.035507    0.000051
  22 H :    0.088047    0.000079
  23 H :    0.106346   -0.000031
  24 H :    0.158220   -0.000105
  25 C :   -0.095591    0.000040
  26 H :    0.106060   -0.000006
  27 H :    0.156704   -0.000112
  28 H :    0.086573    0.000071
  29 H :    0.037446    0.000051
  30 H :    0.157302   -0.000108
  31 H :    0.106195   -0.000007
Sum of atomic charges         :   -2.0000000

LOEWDIN ATOMIC CHARGES AND SPIN POPULATIONS
-------------------------------------------
   0 V :   -0.272411    1.143212
   1 S :    0.105595   -0.014527
   2 S :    0.098686   -0.014509
   3 S :    0.108146   -0.014101
   4 S :    0.097226   -0.014503
   5 O :   -0.356946   -0.120994
   6 C :   -0.563522    0.009368
   7 C :   -0.564754    0.009485
   8 C :   -0.565621    0.010126
   9 C :   -0.564857    0.010565
  10 S :    0.345398   -0.001180
  11 S :    0.347328   -0.001100
  12 S :    0.347136   -0.001022
  13 S :    0.348493   -0.001020
  14 C :   -0.293386    0.000092
  15 C :   -0.292978    0.000121
  16 C :   -0.293513    0.000088
  17 C :   -0.293275    0.000127
  18 C :   -0.195031   -0.000030
  19 H :    0.070341   -0.000038
  20 H :    0.044475   -0.000033
  21 H :    0.041809    0.000002
  22 H :    0.054566    0.000028
  23 H :    0.044355   -0.000033
  24 H :    0.070076   -0.000035
  25 C :   -0.193203   -0.000026
  26 H :    0.044909   -0.000020
  27 H :    0.069353   -0.000030
  28 H :    0.054380    0.000029
  29 H :    0.042632    0.000008
  30 H :    0.069659   -0.000029
  31 H :    0.044931   -0.000020

  Mayer bond orders larger than 0.100000
B(  0-V ,  1-S ) :   0.8112 B(  0-V ,  2-S ) :   0.7990 B(  0-V ,  3-S ) :   0.8183
B(  0-V ,  4-S ) :   0.7996 B(  0-V ,  5-O ) :   2.1014 B(  1-S ,  8-C ) :   1.1575
B(  2-S ,  6-C ) :   1.1603 B(  3-S ,  9-C ) :   1.1541 B(  4-S ,  7-C ) :   1.1573
B(  6-C ,  7-C ) :   1.4569 B(  6-C , 10-S ) :   0.8997 B(  7-C , 11-S ) :   0.8999
B(  8-C ,  9-C ) :   1.4619 B(  8-C , 13-S ) :   0.9119 B(  9-C , 12-S ) :   0.9116
B( 10-S , 16-C ) :   0.9978 B( 11-S , 14-C ) :   0.9958 B( 12-S , 15-C ) :   0.9968
B( 13-S , 17-C ) :   0.9970 B( 14-C , 18-C ) :   0.8655 B( 14-C , 23-H ) :   0.9625
B( 14-C , 24-H ) :   0.9837 B( 15-C , 25-C ) :   0.8670 B( 15-C , 30-H ) :   0.9820
B( 15-C , 31-H ) :   0.9641 B( 16-C , 18-C ) :   0.8642 B( 16-C , 19-H ) :   0.9839
B( 16-C , 20-H ) :   0.9624 B( 17-C , 25-C ) :   0.8671 B( 17-C , 26-H ) :   0.9641
B( 17-C , 27-H ) :   0.9821 B( 18-C , 21-H ) :   0.9409 B( 18-C , 22-H ) :   0.9766
B( 25-C , 28-H ) :   0.9765 B( 25-C , 29-H ) :   0.9429

FINAL SINGLE POINT ENERGY     -4592.703263160411

DIPOLE MOMENT
-------------
                                X             Y             Z
Electronic contribution:    -21.45353      15.02617      -1.54891
Nuclear contribution   :     23.83636     -16.66368       1.80310
                        -----------------------------------------
Total Dipole Moment    :      2.38283      -1.63751       0.25419
                        -----------------------------------------
Magnitude (a.u.)       :      2.90240
Magnitude (Debye)      :      7.37732

Rotational constants in cm-1:     0.013175     0.002563     0.002449
Rotational constants in MHz :   394.987283    76.840276    73.419472

                             ****ORCA TERMINATED NORMALLY****
TOTAL RUN TIME: 0 days 0 hours 43 minutes 9 seconds 411 msec
