                         Program Version 5.0.4 -  RELEASE  -
|  1> ! nofrozencore ReducedPop printbasis
|  2> ! B3LYP TZVP
|  3>
|  4> %basis
|  5> newgto V "CP(PPP)" end
|  6> end
|  7>
|  8> %pal
|  9> nprocs 8
| 10> end
| 11>
| 12> % sym SymThresh 1e-2 end
| 13> * xyz -2 2
| 14> V -0.831613124442599 0.7279384059408438 -0.15050035986708205
| 15> S 0.6146323713056641 0.8326506019800219 -2.1260956889913216
| 16> S -1.5621131389300893 -1.442591585295939 -1.0181368948409306
| 17> S 1.0237634363651809 1.9134320505046052 0.9224876465565796
| 18> S -1.177508717723848 -0.3428827149421817 2.0269296498125478
| 19> O -2.0191896056886858 1.7721925711217568 -0.37062765743482395
| 20> C -2.292595597996372 -2.240932086389547 0.38010199615162205
| 21> C -2.1311336452071434 -1.7830971629482821 1.649720376154062
| 22> C 1.8247771278213791 2.0501557926437126 -1.7038557340125327
| 23> C 1.995527630650426 2.501064209812154 -0.4328380495363177
| 24> S -3.2426673553647087 -3.724996835402653 -0.007022594482591953
| 25> S -2.8447762534046985 -2.614867856756557 3.082944723078748
| 26> S 3.2541642047777426 3.7157912653701293 0.009279345897860626
| 27> S 2.838459655460079 2.6197639717870795 -3.0838759974818752
| 28> C -1.8991555298013518 -4.210790119417822 3.168526569705419
| 29> C 4.831919909355203 2.793575803860731 -0.260580354184031
| 30> C -2.2288717061682384 -5.057399874511753 0.7489129033266734
| 31> C 4.505218513561393 1.9390328521428954 -2.678871085030458
| 32> C -2.4124614824237347 -5.320772732312807 2.228426540778577
| 33> H -1.0158835490079545 -4.813173808869054 0.4657475842309444
| 34> H -2.596323441355765 -6.23790396717199 0.014148616734635303
| 35> H -1.8699258766244673 -6.243813099337662 2.4929423697636137
| 36> H -3.4719514600037304 -5.504693101163284 2.4321987949508364
| 37> H -1.9574201683697015 -4.43947984992115 3.887182668416628
| 38> H -1.0234822375241295 -4.013080757703921 2.9815314455950523
| 39> C 5.348018368543352 2.752381395184703 -1.6994500079843504
| 40> H 5.035782034143557 1.8799490038041287 -3.6672010019923706
| 41> H 4.355871277948478 0.904320921140277 -2.315147530806082
| 42> H 5.44824519747829 3.7764183302071688 -2.0751385301825156
| 43> H 6.360415316003723 2.3171110647074236 -1.6812692321724334
| 44> H 4.688689841543543 1.798945794526553 0.12854545902367673
| 45> H 5.545575690405152 3.2881381416200344 0.35847389422239107
| 46> *
| 47>
| 48> % eprnmr
| 49> gtensor true
| 50> Nuclei = all H {aiso,adip,aorb,fgrad,rho}
| 51> Nuclei = all V {aiso,adip,aorb,fgrad,rho}
| 52> end
| 53>
| 54>                          ****END OF INPUT****

CARTESIAN COORDINATES (ANGSTROEM)
---------------------------------
  V     -0.832550    0.728654   -0.150639
  S      0.613696    0.833366   -2.126235
  S     -1.563050   -1.441876   -1.018276
  S      1.022827    1.914147    0.922349
  S     -1.178446   -0.342168    2.026791
  O     -2.020126    1.772908   -0.370767
  C     -2.293532   -2.240217    0.379963
  C     -2.132070   -1.782382    1.649582
  C      1.823840    2.050871   -1.703995
  C      1.994591    2.501779   -0.432977
  S     -3.243604   -3.724282   -0.007161
  S     -2.845713   -2.614153    3.082806
  S      3.253227    3.716506    0.009140
  S      2.837523    2.620479   -3.084015
  C     -1.900092   -4.210075    3.168388
  C      4.830983    2.794291   -0.260719
  C     -2.229809   -5.056685    0.748774
  C      4.504282    1.939748   -2.679010
  C     -2.413398   -5.320058    2.228288
  H     -1.016820   -4.812459    0.465609
  H     -2.597260   -6.237189    0.014010
  H     -1.870863   -6.243098    2.492804
  H     -3.472888   -5.503978    2.432060
  H     -1.958357   -4.438765    3.887044
  H     -1.024419   -4.012366    2.981393
  C      5.347082    2.753097   -1.699589
  H      5.034845    1.880664   -3.667340
  H      4.354934    0.905036   -2.315286
  H      5.447308    3.777134   -2.075277
  H      6.359478    2.317826   -1.681408
  H      4.687753    1.799661    0.128407
  H      5.544639    3.288853    0.358335

 Total Charge           Charge          ....   -2
 Multiplicity           Mult            ....    2
 Number of Electrons    NEL             ....  233
 Basis Dimension        Dim             ....  517

ORBITAL ENERGIES
----------------
                 SPIN UP ORBITALS
  NO   OCC          E(Eh)            E(eV)
   0   1.0000    -196.641228     -5350.8799
   1   1.0000     -88.680976     -2413.1321
   2   1.0000     -88.677250     -2413.0307
   3   1.0000     -88.677191     -2413.0290
   4   1.0000     -88.676943     -2413.0223
   5   1.0000     -88.614018     -2411.3100
   6   1.0000     -88.613251     -2411.2891
   7   1.0000     -88.612890     -2411.2793
   8   1.0000     -88.612699     -2411.2741
   9   1.0000     -22.017039      -599.1141
  10   1.0000     -18.858280      -513.1599
  11   1.0000     -18.523867      -504.0600
  12   1.0000     -18.518086      -503.9027
  13   1.0000     -18.518050      -503.9018
  14   1.0000     -10.058575      -273.7078
  15   1.0000     -10.019986      -272.6577
  16   1.0000     -10.011682      -272.4317
  17   1.0000     -10.007495      -272.3178
  18   1.0000     -10.005117      -272.2531
  19   1.0000      -9.994636      -271.9679
  20   1.0000      -9.993116      -271.9265
  21   1.0000      -9.992563      -271.9115
  22   1.0000      -9.991853      -271.8921
  23   1.0000      -9.967867      -271.2395
  24   1.0000      -7.734302      -210.4611
  25   1.0000      -7.730965      -210.3702
  26   1.0000      -7.730835      -210.3667
  27   1.0000      -7.730604      -210.3604
  28   1.0000      -7.668430      -208.6686
  29   1.0000      -7.667695      -208.6486
  30   1.0000      -7.667328      -208.6386
  31   1.0000      -7.667130      -208.6332
  32   1.0000      -5.699635      -155.0949
  33   1.0000      -5.696153      -155.0002
  34   1.0000      -5.696080      -154.9982
  35   1.0000      -5.695844      -154.9918
  36   1.0000      -5.695650      -154.9865
  37   1.0000      -5.692331      -154.8962
  38   1.0000      -5.692187      -154.8923
  39   1.0000      -5.691955      -154.8860
  40   1.0000      -5.688990      -154.8053
  41   1.0000      -5.685764      -154.7175
  42   1.0000      -5.685579      -154.7125
  43   1.0000      -5.685366      -154.7067
  44   1.0000      -5.633284      -153.2894
  45   1.0000      -5.632557      -153.2697
  46   1.0000      -5.632168      -153.2591
  47   1.0000      -5.631962      -153.2535
  48   1.0000      -5.626846      -153.1143
  49   1.0000      -5.626432      -153.1030
  50   1.0000      -5.626132      -153.0948
  51   1.0000      -5.625775      -153.0851
  52   1.0000      -5.625650      -153.0817
  53   1.0000      -5.625585      -153.0799
  54   1.0000      -5.625303      -153.0723
  55   1.0000      -5.625108      -153.0670
  56   1.0000      -2.410731       -65.5993
  57   1.0000      -1.452095       -39.5135
  58   1.0000      -1.440519       -39.1985
  59   1.0000      -1.439435       -39.1690
  60   1.0000      -0.657130       -17.8814
  61   1.0000      -0.644434       -17.5359
  62   1.0000      -0.619319       -16.8525
  63   1.0000      -0.603420       -16.4199
  64   1.0000      -0.594306       -16.1719
  65   1.0000      -0.579547       -15.7703
  66   1.0000      -0.576464       -15.6864
  67   1.0000      -0.502985       -13.6869
  68   1.0000      -0.491924       -13.3859
  69   1.0000      -0.490026       -13.3343
  70   1.0000      -0.487664       -13.2700
  71   1.0000      -0.437539       -11.9060
  72   1.0000      -0.422474       -11.4961
  73   1.0000      -0.411277       -11.1914
  74   1.0000      -0.401552       -10.9268
  75   1.0000      -0.375671       -10.2225
  76   1.0000      -0.371815       -10.1176
  77   1.0000      -0.318522        -8.6674
  78   1.0000      -0.293492        -7.9863
  79   1.0000      -0.279058        -7.5935
  80   1.0000      -0.278152        -7.5689
  81   1.0000      -0.261353        -7.1118
  82   1.0000      -0.256236        -6.9725
  83   1.0000      -0.241867        -6.5815
  84   1.0000      -0.238933        -6.5017
  85   1.0000      -0.206841        -5.6284
  86   1.0000      -0.195751        -5.3266
  87   1.0000      -0.193210        -5.2575
  88   1.0000      -0.192155        -5.2288
  89   1.0000      -0.184645        -5.0244
  90   1.0000      -0.182349        -4.9620
  91   1.0000      -0.163206        -4.4411
  92   1.0000      -0.152371        -4.1462
  93   1.0000      -0.150618        -4.0985
  94   1.0000      -0.145777        -3.9668
  95   1.0000      -0.143459        -3.9037
  96   1.0000      -0.138977        -3.7818
  97   1.0000      -0.098576        -2.6824
  98   1.0000      -0.097026        -2.6402
  99   1.0000      -0.090782        -2.4703
 100   1.0000      -0.084772        -2.3068
 101   1.0000      -0.082204        -2.2369
 102   1.0000      -0.081298        -2.2122
 103   1.0000      -0.070915        -1.9297
 104   1.0000      -0.051255        -1.3947
 105   1.0000      -0.039480        -1.0743
 106   1.0000      -0.039127        -1.0647
 107   1.0000      -0.036892        -1.0039
 108   1.0000      -0.033192        -0.9032
 109   1.0000      -0.014305        -0.3893
 110   1.0000      -0.005567        -0.1515
 111   1.0000      -0.004505        -0.1226
 112   1.0000       0.005031         0.1369
 113   1.0000       0.009465         0.2576
 114   1.0000       0.015137         0.4119
 115   1.0000       0.032321         0.8795
 116   1.0000       0.058510         1.5921
 117   0.0000       0.172491         4.6937
 118   0.0000       0.189452         5.1552
 119   0.0000       0.195870         5.3299
 120   0.0000       0.196938         5.3590
 121   0.0000       0.209327         5.6961

                 SPIN DOWN ORBITALS
  NO   OCC          E(Eh)            E(eV)
   0   1.0000    -196.641369     -5350.8837
   1   1.0000     -88.680989     -2413.1324
   2   1.0000     -88.677264     -2413.0310
   3   1.0000     -88.677205     -2413.0294
   4   1.0000     -88.676956     -2413.0227
   5   1.0000     -88.614177     -2411.3144
   6   1.0000     -88.613409     -2411.2935
   7   1.0000     -88.613051     -2411.2837
   8   1.0000     -88.612860     -2411.2785
   9   1.0000     -22.002366      -598.7148
  10   1.0000     -18.861868      -513.2575
  11   1.0000     -18.518732      -503.9203
  12   1.0000     -18.502594      -503.4812
  13   1.0000     -18.501911      -503.4626
  14   1.0000     -10.058572      -273.7077
  15   1.0000     -10.019982      -272.6576
  16   1.0000     -10.011678      -272.4316
  17   1.0000     -10.007495      -272.3178
  18   1.0000     -10.005117      -272.2531
  19   1.0000      -9.994382      -271.9610
  20   1.0000      -9.992863      -271.9196
  21   1.0000      -9.992308      -271.9045
  22   1.0000      -9.991600      -271.8853
  23   1.0000      -9.967864      -271.2394
  24   1.0000      -7.734316      -210.4614
  25   1.0000      -7.730979      -210.3706
  26   1.0000      -7.730849      -210.3671
  27   1.0000      -7.730618      -210.3608
  28   1.0000      -7.668578      -208.6726
  29   1.0000      -7.667843      -208.6526
  30   1.0000      -7.667477      -208.6427
  31   1.0000      -7.667280      -208.6373
  32   1.0000      -5.699651      -155.0954
  33   1.0000      -5.696170      -155.0007
  34   1.0000      -5.696097      -154.9987
  35   1.0000      -5.695861      -154.9923
  36   1.0000      -5.695670      -154.9871
  37   1.0000      -5.692352      -154.8968
  38   1.0000      -5.692207      -154.8928
  39   1.0000      -5.691975      -154.8865
  40   1.0000      -5.689006      -154.8057
  41   1.0000      -5.685782      -154.7180
  42   1.0000      -5.685596      -154.7129
  43   1.0000      -5.685383      -154.7071
  44   1.0000      -5.633455      -153.2941
  45   1.0000      -5.632728      -153.2743
  46   1.0000      -5.632340      -153.2638
  47   1.0000      -5.632134      -153.2582
  48   1.0000      -5.627232      -153.1248
  49   1.0000      -5.626569      -153.1067
  50   1.0000      -5.626520      -153.1054
  51   1.0000      -5.626169      -153.0958
  52   1.0000      -5.625980      -153.0907
  53   1.0000      -5.625785      -153.0854
  54   1.0000      -5.625438      -153.0760
  55   1.0000      -5.625243      -153.0706
  56   1.0000      -2.366535       -64.3967
  57   1.0000      -1.433247       -39.0006
  58   1.0000      -1.379096       -37.5271
  59   1.0000      -1.378444       -37.5094
  60   1.0000      -0.657103       -17.8807
  61   1.0000      -0.644384       -17.5346
  62   1.0000      -0.626999       -17.0615
  63   1.0000      -0.603240       -16.4150
  64   1.0000      -0.594109       -16.1665
  65   1.0000      -0.579512       -15.7693
  66   1.0000      -0.576459       -15.6862
  67   1.0000      -0.502962       -13.6863
  68   1.0000      -0.491949       -13.3866
  69   1.0000      -0.490061       -13.3352
  70   1.0000      -0.487680       -13.2705
  71   1.0000      -0.437799       -11.9131
  72   1.0000      -0.422757       -11.5038
  73   1.0000      -0.411313       -11.1924
  74   1.0000      -0.401651       -10.9295
  75   1.0000      -0.375650       -10.2220
  76   1.0000      -0.371828       -10.1180
  77   1.0000      -0.318513        -8.6672
  78   1.0000      -0.293475        -7.9858
  79   1.0000      -0.279031        -7.5928
  80   1.0000      -0.278134        -7.5684
  81   1.0000      -0.261142        -7.1060
  82   1.0000      -0.256191        -6.9713
  83   1.0000      -0.241773        -6.5790
  84   1.0000      -0.238872        -6.5000
  85   1.0000      -0.206771        -5.6265
  86   1.0000      -0.195278        -5.3138
  87   1.0000      -0.193157        -5.2561
  88   1.0000      -0.192111        -5.2276
  89   1.0000      -0.184576        -5.0226
  90   1.0000      -0.180336        -4.9072
  91   1.0000      -0.163078        -4.4376
  92   1.0000      -0.151863        -4.1324
  93   1.0000      -0.150194        -4.0870
  94   1.0000      -0.145580        -3.9614
  95   1.0000      -0.143231        -3.8975
  96   1.0000      -0.138788        -3.7766
  97   1.0000      -0.097213        -2.6453
  98   1.0000      -0.096380        -2.6226
  99   1.0000      -0.090901        -2.4735
 100   1.0000      -0.084751        -2.3062
 101   1.0000      -0.083180        -2.2634
 102   1.0000      -0.081796        -2.2258
 103   1.0000      -0.072222        -1.9653
 104   1.0000      -0.047126        -1.2824
 105   1.0000      -0.039573        -1.0768
 106   1.0000      -0.038445        -1.0461
 107   1.0000      -0.035866        -0.9760
 108   1.0000      -0.033157        -0.9022
 109   1.0000      -0.013401        -0.3646
 110   1.0000      -0.006878        -0.1871
 111   1.0000      -0.003530        -0.0961
 112   1.0000       0.005876         0.1599
 113   1.0000       0.010366         0.2821
 114   1.0000       0.032571         0.8863
 115   1.0000       0.057715         1.5705
 116   0.0000       0.172449         4.6926
 117   0.0000       0.184269         5.0142
 118   0.0000       0.190667         5.1883
 119   0.0000       0.196077         5.3355
 120   0.0000       0.197592         5.3767

MULLIKEN ATOMIC CHARGES AND SPIN POPULATIONS
--------------------------------------------
   0 V :    0.447015    1.199524
   1 S :   -0.252638   -0.024400
   2 S :   -0.250162   -0.023850
   3 S :   -0.254294   -0.024350
   4 S :   -0.250809   -0.023831
   5 O :   -0.505812   -0.139079
   6 C :   -0.130041    0.008788
   7 C :   -0.106404    0.008900
   8 C :   -0.116812    0.008939
   9 C :   -0.115245    0.008912
  10 S :   -0.015698   -0.000095
  11 S :   -0.063870   -0.000233
  12 S :   -0.046587   -0.000200
  13 S :   -0.042207   -0.000226
  14 C :   -0.432233    0.000337
  15 C :   -0.343027    0.000302
  16 C :   -0.275132    0.000240
  17 C :   -0.332895    0.000315
  18 C :   -0.091370    0.000154
  19 H :    0.117332   -0.000123
  20 H :    0.004637   -0.000001
  21 H :    0.048770    0.000037
  22 H :    0.081868    0.000016
  23 H :    0.214111    0.000003
  24 H :    0.174831   -0.000107
  25 C :   -0.084611    0.000137
  26 H :    0.094429    0.000030
  27 H :    0.144730   -0.000110
  28 H :    0.078666    0.000011
  29 H :    0.044866    0.000036
  30 H :    0.149346   -0.000105
  31 H :    0.109243    0.000027
Sum of atomic charges         :   -2.0000000

LOEWDIN ATOMIC CHARGES AND SPIN POPULATIONS
-------------------------------------------
   0 V :   -0.242796    1.153479
   1 S :    0.088869   -0.016549
   2 S :    0.089799   -0.016144
   3 S :    0.087792   -0.016479
   4 S :    0.090631   -0.016128
   5 O :   -0.350410   -0.124505
   6 C :   -0.556198    0.009955
   7 C :   -0.547674    0.010013
   8 C :   -0.552706    0.009964
   9 C :   -0.552652    0.009990
  10 S :    0.348077   -0.000971
  11 S :    0.339988   -0.001063
  12 S :    0.336606   -0.001045
  13 S :    0.337382   -0.001058
  14 C :   -0.184432    0.000163
  15 C :   -0.288412    0.000169
  16 C :   -0.318060    0.000150
  17 C :   -0.298484    0.000179
  18 C :   -0.176853   -0.000034
  19 H :    0.083481   -0.000057
  20 H :    0.039048   -0.000009
  21 H :    0.049442    0.000017
  22 H :    0.055353    0.000013
  23 H :   -0.057408    0.000005
  24 H :    0.038120   -0.000009
  25 C :   -0.184813   -0.000040
  26 H :    0.050566    0.000010
  27 H :    0.067984   -0.000030
  28 H :    0.053490    0.000011
  29 H :    0.046906    0.000018
  30 H :    0.063893   -0.000025
  31 H :    0.043470    0.000008

  Mayer bond orders larger than 0.100000
B(  0-V ,  1-S ) :   0.7903 B(  0-V ,  2-S ) :   0.7900 B(  0-V ,  3-S ) :   0.7915
B(  0-V ,  4-S ) :   0.7849 B(  0-V ,  5-O ) :   2.1086 B(  1-S ,  8-C ) :   1.1378
B(  2-S ,  6-C ) :   1.1353 B(  3-S ,  9-C ) :   1.1364 B(  4-S ,  7-C ) :   1.1439
B(  6-C ,  7-C ) :   1.5091 B(  6-C , 10-S ) :   0.9540 B(  7-C , 11-S ) :   0.9550
B(  8-C ,  9-C ) :   1.5180 B(  8-C , 13-S ) :   0.9539 B(  9-C , 12-S ) :   0.9540
B( 10-S , 16-C ) :   1.0105 B( 11-S , 14-C ) :   0.9656 B( 12-S , 15-C ) :   1.0034
B( 13-S , 17-C ) :   1.0067 B( 14-C , 18-C ) :   0.8421 B( 14-C , 23-H ) :   0.9668
B( 14-C , 24-H ) :   0.9918 B( 15-C , 25-C ) :   0.8762 B( 15-C , 30-H ) :   0.9767
B( 15-C , 31-H ) :   0.9712 B( 16-C , 18-C ) :   0.9037 B( 16-C , 19-H ) :   0.9505
B( 16-C , 20-H ) :   0.9322 B( 17-C , 25-C ) :   0.8799 B( 17-C , 26-H ) :   0.9687
B( 17-C , 27-H ) :   0.9733 B( 18-C , 21-H ) :   0.9526 B( 18-C , 22-H ) :   0.9719
B( 25-C , 28-H ) :   0.9739 B( 25-C , 29-H ) :   0.9526

FINAL SINGLE POINT ENERGY     -4592.505526486149

DIPOLE MOMENT
-------------
                                X             Y             Z
Electronic contribution:    -19.79156      17.85746      -2.89733
Nuclear contribution   :     22.13491     -19.58104       3.53026
                        -----------------------------------------
Total Dipole Moment    :      2.34335      -1.72358       0.63293
                        -----------------------------------------
Magnitude (a.u.)       :      2.97702
Magnitude (Debye)      :      7.56697

Rotational constants in cm-1:     0.012770     0.002548     0.002431
Rotational constants in MHz :   382.828551    76.397545    72.881342

                             ****ORCA TERMINATED NORMALLY****
TOTAL RUN TIME: 0 days 0 hours 27 minutes 34 seconds 87 msec
