                         Program Version 5.0.4 -  RELEASE  -
|  1> ! nofrozencore ReducedPop printbasis
|  2> ! B3LYP TZVP
|  3>
|  4> %basis
|  5> newgto V "CP(PPP)" end
|  6> end
|  7>
|  8> %pal
|  9> nprocs 8
| 10> end
| 11>
| 12> % sym SymThresh 1e-2 end
| 13> * xyz -2 2
| 14> V 0.7989873526578222 -0.4148629617240576 -0.6626758653303952
| 15> S 0.4807218876061157 1.9436747952739046 -1.2530305310419845
| 16> S 1.8606209263303781 0.43461792696706264 1.3770529408379106
| 17> S -1.3564703532744389 -0.6973711000246914 -1.7947725172842575
| 18> S 0.045442526537010156 -2.2205460253010347 0.8180345566494792
| 19> O 1.939596926000599 -1.0035254225320416 -1.6125343202905527
| 20> C 1.8691863829037436 -0.9693099082493237 2.45364835982887
| 21> C 1.112072188840526 -2.074008112400828 2.2216603127177192
| 22> C -0.7569156052413982 1.887937889148836 -2.5151685746357613
| 23> C -1.5225602096389224 0.7878320341920297 -2.7411942280663237
| 24> S 2.843238093210475 -0.7839946910274683 3.961190480443929
| 25> S 1.023951742240573 -3.4307730437489887 3.4082378715872808
| 26> S -2.871838641974659 0.7966781256784776 -3.939063760469177
| 27> S -1.0333380096487956 3.437484774085034 -3.3974930364541778
| 28> C 0.16903104910202038 -2.6870736460877396 4.868190957313939
| 29> C -4.102094827756723 1.961845864873886 -3.2028667502869634
| 30> C 1.5723732591984938 -0.6484213909845759 5.295927252199386
| 31> C -2.6831250369627946 4.000356794225423 -2.786149571453926
| 32> C 1.112226226810519 -1.9945781686166948 5.847387565364939
| 33> H 0.725224390627483 -0.08200637596767413 4.88960417911559
| 34> H 2.0441210240602796 -0.03876760126549375 6.0783771339458585
| 35> H 0.5927300074192936 -1.83959195599628 6.814157994751772
| 36> H 1.9863535746432788 -2.637263775412442 6.042812753583977
| 37> H -0.3576146147467595 -3.523287711159257 5.347552391333037
| 38> H -0.5839931030634169 -1.9855984336171242 4.488112797248369
| 39> C -3.862965222202265 3.424744204865581 -3.5632668453229015
| 40> H -2.656770575340484 5.095055700843341 -2.864020671273649
| 41> H -2.7479384770604547 3.738661637902998 -1.7234499023911711
| 42> H -3.6768090124762605 3.516101412493623 -4.644875053052417
| 43> H -4.773438204664959 4.01208094536175 -3.334637728212188
| 44> H -4.083584646098075 1.8176092065609746 -2.116200942449666
| 45> H -5.076841756454891 1.6188639926586816 -3.5733927261931635
| 46> *
| 47>
| 48> % eprnmr
| 49> gtensor true
| 50> Nuclei = all H {aiso,adip,aorb,fgrad,rho}
| 51> Nuclei = all V {aiso,adip,aorb,fgrad,rho}
| 52> end
| 53>
| 54>                          ****END OF INPUT****

CARTESIAN COORDINATES (ANGSTROEM)
---------------------------------
  V      0.799871   -0.415334   -0.663313
  S      0.481606    1.943203   -1.253667
  S      1.861505    0.434146    1.376416
  S     -1.355587   -0.697843   -1.795409
  S      0.046326   -2.221017    0.817398
  O      1.940481   -1.003997   -1.613171
  C      1.870070   -0.969781    2.453012
  C      1.112956   -2.074480    2.221024
  C     -0.756032    1.887466   -2.515805
  C     -1.521676    0.787361   -2.741831
  S      2.844122   -0.784466    3.960554
  S      1.024835   -3.431245    3.407601
  S     -2.870955    0.796207   -3.939700
  S     -1.032454    3.437013   -3.398130
  C      0.169915   -2.687545    4.867554
  C     -4.101211    1.961374   -3.203503
  C      1.573257   -0.648893    5.295291
  C     -2.682241    3.999885   -2.786786
  C      1.113110   -1.995050    5.846751
  H      0.726108   -0.082478    4.888967
  H      2.045005   -0.039239    6.077740
  H      0.593614   -1.840063    6.813521
  H      1.987237   -2.637735    6.042176
  H     -0.356731   -3.523759    5.346916
  H     -0.583109   -1.986070    4.487476
  C     -3.862082    3.424273   -3.563904
  H     -2.655887    5.094584   -2.864657
  H     -2.747055    3.738190   -1.724087
  H     -3.675925    3.515630   -4.645512
  H     -4.772554    4.011609   -3.335274
  H     -4.082701    1.817138   -2.116838
  H     -5.075958    1.618393   -3.574029

 Total Charge           Charge          ....   -2
 Multiplicity           Mult            ....    2
 Number of Electrons    NEL             ....  233
 Basis Dimension        Dim             ....  517

ORBITAL ENERGIES
----------------
                 SPIN UP ORBITALS
  NO   OCC          E(Eh)            E(eV)
   0   1.0000    -196.640491     -5350.8598
   1   1.0000     -88.675527     -2412.9838
   2   1.0000     -88.675523     -2412.9837
   3   1.0000     -88.675506     -2412.9832
   4   1.0000     -88.675450     -2412.9817
   5   1.0000     -88.612542     -2411.2699
   6   1.0000     -88.612511     -2411.2690
   7   1.0000     -88.612491     -2411.2685
   8   1.0000     -88.612436     -2411.2670
   9   1.0000     -22.016263      -599.0930
  10   1.0000     -18.857523      -513.1393
  11   1.0000     -18.523116      -504.0396
  12   1.0000     -18.517301      -503.8814
  13   1.0000     -18.517263      -503.8803
  14   1.0000     -10.015520      -272.5362
  15   1.0000     -10.015497      -272.5355
  16   1.0000     -10.015354      -272.5316
  17   1.0000     -10.015341      -272.5313
  18   1.0000     -10.004509      -272.2365
  19   1.0000     -10.004323      -272.2315
  20   1.0000      -9.992261      -271.9032
  21   1.0000      -9.992175      -271.9009
  22   1.0000      -9.991537      -271.8835
  23   1.0000      -9.991461      -271.8815
  24   1.0000      -7.729316      -210.3254
  25   1.0000      -7.729304      -210.3251
  26   1.0000      -7.729279      -210.3244
  27   1.0000      -7.729231      -210.3231
  28   1.0000      -7.666906      -208.6271
  29   1.0000      -7.666903      -208.6270
  30   1.0000      -7.666852      -208.6256
  31   1.0000      -7.666834      -208.6252
  32   1.0000      -5.694549      -154.9565
  33   1.0000      -5.694536      -154.9562
  34   1.0000      -5.694515      -154.9556
  35   1.0000      -5.694470      -154.9544
  36   1.0000      -5.690688      -154.8515
  37   1.0000      -5.690684      -154.8514
  38   1.0000      -5.690653      -154.8505
  39   1.0000      -5.690606      -154.8493
  40   1.0000      -5.684026      -154.6702
  41   1.0000      -5.684019      -154.6700
  42   1.0000      -5.683992      -154.6693
  43   1.0000      -5.683942      -154.6679
  44   1.0000      -5.631754      -153.2478
  45   1.0000      -5.631743      -153.2475
  46   1.0000      -5.631706      -153.2465
  47   1.0000      -5.631682      -153.2459
  48   1.0000      -5.625373      -153.0742
  49   1.0000      -5.625355      -153.0737
  50   1.0000      -5.625307      -153.0724
  51   1.0000      -5.625288      -153.0719
  52   1.0000      -5.624875      -153.0606
  53   1.0000      -5.624859      -153.0602
  54   1.0000      -5.624830      -153.0594
  55   1.0000      -5.624797      -153.0585
  56   1.0000      -2.409948       -65.5780
  57   1.0000      -1.451297       -39.4918
  58   1.0000      -1.439609       -39.1738
  59   1.0000      -1.438749       -39.1503
  60   1.0000      -0.645722       -17.5710
  61   1.0000      -0.645656       -17.5692
  62   1.0000      -0.618556       -16.8318
  63   1.0000      -0.594204       -16.1691
  64   1.0000      -0.593757       -16.1570
  65   1.0000      -0.573729       -15.6120
  66   1.0000      -0.573332       -15.6012
  67   1.0000      -0.489921       -13.3314
  68   1.0000      -0.487911       -13.2767
  69   1.0000      -0.485625       -13.2145
  70   1.0000      -0.484305       -13.1786
  71   1.0000      -0.421520       -11.4701
  72   1.0000      -0.418653       -11.3921
  73   1.0000      -0.413527       -11.2527
  74   1.0000      -0.408885       -11.1263
  75   1.0000      -0.379116       -10.3163
  76   1.0000      -0.375492       -10.2177
  77   1.0000      -0.293017        -7.9734
  78   1.0000      -0.292732        -7.9656
  79   1.0000      -0.279888        -7.6161
  80   1.0000      -0.279747        -7.6123
  81   1.0000      -0.259288        -7.0556
  82   1.0000      -0.254218        -6.9176
  83   1.0000      -0.238751        -6.4967
  84   1.0000      -0.235639        -6.4120
  85   1.0000      -0.194043        -5.2802
  86   1.0000      -0.191702        -5.2165
  87   1.0000      -0.191190        -5.2025
  88   1.0000      -0.190629        -5.1873
  89   1.0000      -0.186712        -5.0807
  90   1.0000      -0.184829        -5.0295
  91   1.0000      -0.180995        -4.9251
  92   1.0000      -0.151186        -4.1140
  93   1.0000      -0.148560        -4.0425
  94   1.0000      -0.145125        -3.9491
  95   1.0000      -0.143739        -3.9113
  96   1.0000      -0.140867        -3.8332
  97   1.0000      -0.097731        -2.6594
  98   1.0000      -0.095186        -2.5901
  99   1.0000      -0.090079        -2.4512
 100   1.0000      -0.083076        -2.2606
 101   1.0000      -0.080399        -2.1878
 102   1.0000      -0.080162        -2.1813
 103   1.0000      -0.069249        -1.8844
 104   1.0000      -0.050761        -1.3813
 105   1.0000      -0.039160        -1.0656
 106   1.0000      -0.037941        -1.0324
 107   1.0000      -0.036641        -0.9970
 108   1.0000      -0.030943        -0.8420
 109   1.0000      -0.013268        -0.3610
 110   1.0000      -0.003790        -0.1031
 111   1.0000      -0.002296        -0.0625
 112   1.0000       0.006619         0.1801
 113   1.0000       0.010625         0.2891
 114   1.0000       0.015985         0.4350
 115   1.0000       0.032697         0.8897
 116   1.0000       0.058631         1.5954
 117   0.0000       0.187861         5.1120
 118   0.0000       0.195843         5.3292
 119   0.0000       0.198794         5.4095
 120   0.0000       0.199050         5.4164
 121   0.0000       0.211321         5.7503

                 SPIN DOWN ORBITALS
  NO   OCC          E(Eh)            E(eV)
   0   1.0000    -196.640633     -5350.8637
   1   1.0000     -88.675540     -2412.9841
   2   1.0000     -88.675536     -2412.9840
   3   1.0000     -88.675520     -2412.9836
   4   1.0000     -88.675464     -2412.9820
   5   1.0000     -88.612702     -2411.2742
   6   1.0000     -88.612671     -2411.2734
   7   1.0000     -88.612651     -2411.2728
   8   1.0000     -88.612596     -2411.2713
   9   1.0000     -22.001566      -598.6931
  10   1.0000     -18.861102      -513.2367
  11   1.0000     -18.517983      -503.8999
  12   1.0000     -18.501679      -503.4563
  13   1.0000     -18.501193      -503.4431
  14   1.0000     -10.015516      -272.5361
  15   1.0000     -10.015494      -272.5354
  16   1.0000     -10.015349      -272.5315
  17   1.0000     -10.015337      -272.5312
  18   1.0000     -10.004508      -272.2365
  19   1.0000     -10.004322      -272.2314
  20   1.0000      -9.992007      -271.8963
  21   1.0000      -9.991920      -271.8940
  22   1.0000      -9.991285      -271.8767
  23   1.0000      -9.991208      -271.8746
  24   1.0000      -7.729330      -210.3258
  25   1.0000      -7.729318      -210.3254
  26   1.0000      -7.729293      -210.3247
  27   1.0000      -7.729245      -210.3235
  28   1.0000      -7.667055      -208.6312
  29   1.0000      -7.667051      -208.6311
  30   1.0000      -7.667001      -208.6297
  31   1.0000      -7.666983      -208.6292
  32   1.0000      -5.694565      -154.9570
  33   1.0000      -5.694553      -154.9567
  34   1.0000      -5.694532      -154.9561
  35   1.0000      -5.694487      -154.9549
  36   1.0000      -5.690708      -154.8520
  37   1.0000      -5.690704      -154.8519
  38   1.0000      -5.690673      -154.8511
  39   1.0000      -5.690626      -154.8498
  40   1.0000      -5.684043      -154.6707
  41   1.0000      -5.684036      -154.6705
  42   1.0000      -5.684008      -154.6697
  43   1.0000      -5.683958      -154.6684
  44   1.0000      -5.631924      -153.2524
  45   1.0000      -5.631912      -153.2521
  46   1.0000      -5.631876      -153.2511
  47   1.0000      -5.631852      -153.2505
  48   1.0000      -5.625764      -153.0848
  49   1.0000      -5.625745      -153.0843
  50   1.0000      -5.625699      -153.0830
  51   1.0000      -5.625680      -153.0825
  52   1.0000      -5.625011      -153.0643
  53   1.0000      -5.624996      -153.0639
  54   1.0000      -5.624967      -153.0631
  55   1.0000      -5.624934      -153.0622
  56   1.0000      -2.365691       -64.3737
  57   1.0000      -1.432466       -38.9794
  58   1.0000      -1.378010       -37.4976
  59   1.0000      -1.377723       -37.4897
  60   1.0000      -0.645676       -17.5697
  61   1.0000      -0.645607       -17.5679
  62   1.0000      -0.626222       -17.0404
  63   1.0000      -0.594018       -16.1641
  64   1.0000      -0.593549       -16.1513
  65   1.0000      -0.573722       -15.6118
  66   1.0000      -0.573325       -15.6010
  67   1.0000      -0.489949       -13.3322
  68   1.0000      -0.487952       -13.2779
  69   1.0000      -0.485637       -13.2149
  70   1.0000      -0.484335       -13.1794
  71   1.0000      -0.421759       -11.4766
  72   1.0000      -0.418960       -11.4005
  73   1.0000      -0.413545       -11.2531
  74   1.0000      -0.408975       -11.1288
  75   1.0000      -0.379078       -10.3152
  76   1.0000      -0.375535       -10.2188
  77   1.0000      -0.292996        -7.9728
  78   1.0000      -0.292725        -7.9655
  79   1.0000      -0.279854        -7.6152
  80   1.0000      -0.279725        -7.6117
  81   1.0000      -0.259080        -7.0499
  82   1.0000      -0.254179        -6.9166
  83   1.0000      -0.238637        -6.4936
  84   1.0000      -0.235557        -6.4098
  85   1.0000      -0.193647        -5.2694
  86   1.0000      -0.191683        -5.2160
  87   1.0000      -0.191167        -5.2019
  88   1.0000      -0.190618        -5.1870
  89   1.0000      -0.186332        -5.0704
  90   1.0000      -0.184742        -5.0271
  91   1.0000      -0.179216        -4.8767
  92   1.0000      -0.150513        -4.0957
  93   1.0000      -0.148222        -4.0333
  94   1.0000      -0.144797        -3.9401
  95   1.0000      -0.143681        -3.9097
  96   1.0000      -0.140651        -3.8273
  97   1.0000      -0.096177        -2.6171
  98   1.0000      -0.094708        -2.5771
  99   1.0000      -0.090201        -2.4545
 100   1.0000      -0.083184        -2.2635
 101   1.0000      -0.082111        -2.2343
 102   1.0000      -0.079996        -2.1768
 103   1.0000      -0.070643        -1.9223
 104   1.0000      -0.046490        -1.2651
 105   1.0000      -0.039358        -1.0710
 106   1.0000      -0.036965        -1.0059
 107   1.0000      -0.035540        -0.9671
 108   1.0000      -0.030887        -0.8405
 109   1.0000      -0.012378        -0.3368
 110   1.0000      -0.005097        -0.1387
 111   1.0000      -0.001494        -0.0407
 112   1.0000       0.007568         0.2059
 113   1.0000       0.011488         0.3126
 114   1.0000       0.032849         0.8939
 115   1.0000       0.057845         1.5740
 116   0.0000       0.185498         5.0477
 117   0.0000       0.189136         5.1467
 118   0.0000       0.196472         5.3463
 119   0.0000       0.198872         5.4116
 120   0.0000       0.199430         5.4268

MULLIKEN ATOMIC CHARGES AND SPIN POPULATIONS
--------------------------------------------
   0 V :    0.453134    1.200034
   1 S :   -0.254748   -0.024443
   2 S :   -0.255013   -0.024402
   3 S :   -0.255041   -0.024412
   4 S :   -0.255462   -0.024394
   5 O :   -0.508104   -0.138888
   6 C :   -0.116520    0.009007
   7 C :   -0.115276    0.009027
   8 C :   -0.115326    0.009074
   9 C :   -0.116077    0.008990
  10 S :   -0.046102   -0.000236
  11 S :   -0.045877   -0.000281
  12 S :   -0.045994   -0.000267
  13 S :   -0.046140   -0.000295
  14 C :   -0.348355    0.000329
  15 C :   -0.346340    0.000330
  16 C :   -0.346747    0.000312
  17 C :   -0.346405    0.000352
  18 C :   -0.101251    0.000183
  19 H :    0.150937   -0.000094
  20 H :    0.108909    0.000022
  21 H :    0.044170    0.000085
  22 H :    0.092803   -0.000037
  23 H :    0.108841    0.000023
  24 H :    0.151701   -0.000097
  25 C :   -0.099905    0.000183
  26 H :    0.108241    0.000028
  27 H :    0.150951   -0.000103
  28 H :    0.091473   -0.000035
  29 H :    0.044269    0.000078
  30 H :    0.151043   -0.000099
  31 H :    0.108213    0.000026
Sum of atomic charges         :   -2.0000000

LOEWDIN ATOMIC CHARGES AND SPIN POPULATIONS
-------------------------------------------
   0 V :   -0.239335    1.154334
   1 S :    0.087132   -0.016569
   2 S :    0.086610   -0.016519
   3 S :    0.086848   -0.016524
   4 S :    0.086192   -0.016547
   5 O :   -0.350930   -0.124376
   6 C :   -0.553084    0.009940
   7 C :   -0.552490    0.009891
   8 C :   -0.552558    0.009921
   9 C :   -0.552910    0.009924
  10 S :    0.336234   -0.001036
  11 S :    0.336112   -0.001060
  12 S :    0.336313   -0.001056
  13 S :    0.336280   -0.001070
  14 C :   -0.293593    0.000197
  15 C :   -0.293485    0.000196
  16 C :   -0.293629    0.000188
  17 C :   -0.293598    0.000207
  18 C :   -0.191366   -0.000029
  19 H :    0.068723   -0.000024
  20 H :    0.047331    0.000007
  21 H :    0.044652    0.000031
  22 H :    0.056417    0.000011
  23 H :    0.047359    0.000008
  24 H :    0.068887   -0.000024
  25 C :   -0.190741   -0.000032
  26 H :    0.047289    0.000011
  27 H :    0.068575   -0.000025
  28 H :    0.056101    0.000009
  29 H :    0.044773    0.000030
  30 H :    0.068618   -0.000024
  31 H :    0.047271    0.000010

  Mayer bond orders larger than 0.100000
B(  0-V ,  1-S ) :   0.7866 B(  0-V ,  2-S ) :   0.7879 B(  0-V ,  3-S ) :   0.7884
B(  0-V ,  4-S ) :   0.7851 B(  0-V ,  5-O ) :   2.1081 B(  1-S ,  8-C ) :   1.1384
B(  2-S ,  6-C ) :   1.1373 B(  3-S ,  9-C ) :   1.1376 B(  4-S ,  7-C ) :   1.1384
B(  6-C ,  7-C ) :   1.5256 B(  6-C , 10-S ) :   0.9527 B(  7-C , 11-S ) :   0.9527
B(  8-C ,  9-C ) :   1.5254 B(  8-C , 13-S ) :   0.9525 B(  9-C , 12-S ) :   0.9528
B( 10-S , 16-C ) :   0.9915 B( 11-S , 14-C ) :   0.9914 B( 12-S , 15-C ) :   0.9924
B( 13-S , 17-C ) :   0.9930 B( 14-C , 18-C ) :   0.8699 B( 14-C , 23-H ) :   0.9697
B( 14-C , 24-H ) :   0.9779 B( 15-C , 25-C ) :   0.8708 B( 15-C , 30-H ) :   0.9775
B( 15-C , 31-H ) :   0.9698 B( 16-C , 18-C ) :   0.8700 B( 16-C , 19-H ) :   0.9778
B( 16-C , 20-H ) :   0.9697 B( 17-C , 25-C ) :   0.8707 B( 17-C , 26-H ) :   0.9699
B( 17-C , 27-H ) :   0.9774 B( 18-C , 21-H ) :   0.9482 B( 18-C , 22-H ) :   0.9740
B( 25-C , 28-H ) :   0.9741 B( 25-C , 29-H ) :   0.9488

FINAL SINGLE POINT ENERGY     -4592.720224595485

DIPOLE MOMENT
-------------
                                X             Y             Z
Electronic contribution:     18.94358      -9.86000     -15.69254
Nuclear contribution   :    -21.14664      11.00800      17.51142
                        -----------------------------------------
Total Dipole Moment    :     -2.20306       1.14801       1.81888
                        -----------------------------------------
Magnitude (a.u.)       :      3.07891
Magnitude (Debye)      :      7.82597

Rotational constants in cm-1:     0.012922     0.002547     0.002435
Rotational constants in MHz :   387.389126    76.362772    72.999668

                             ****ORCA TERMINATED NORMALLY****
TOTAL RUN TIME: 0 days 0 hours 27 minutes 24 seconds 146 msec
