                         Program Version 5.0.4 -  RELEASE  -
|  1> ! nofrozencore ReducedPop printbasis
|  2> ! B3LYP TZVP
|  3>
|  4> %basis
|  5> newgto V "CP(PPP)" end
|  6> end
|  7>
|  8> %pal
|  9> nprocs 4
| 10> end
| 11>
| 12> % sym SymThresh 1e-2 end
| 13> * xyz -2 2
| 14> V 0.9900749979631688 0.021276878186253297 0.5132495730420811
| 15> S -0.7199185269839748 0.5946732175439468 2.17243953811059
| 16> S 0.11371026711040211 -2.260903955265731 0.6581739868541258
| 17> S 0.5266733221878064 2.2752396502160654 -0.3259607838656918
| 18> S 1.3895357290733232 -0.5800414803016523 -1.8289959145094163
| 19> O 2.4048015029018637 0.05427094504827469 1.2526493955798272
| 20> C 0.721033427545769 -3.02635819330818 -0.8398970502317834
| 21> C 1.2247344965527636 -2.3607433974940046 -1.824748359897088
| 22> C -0.8857119003009285 2.331803684218942 2.062677627901725
| 23> C -0.3404732547530903 3.067228671051786 0.9700145532473881
| 24> S 0.5268925998444729 -4.83815115885816 -0.8409599246656002
| 25> S 1.812406096271195 -3.132557367186969 -3.36732686192678
| 26> S -0.5403549900502765 4.83801357929386 0.8345295613158221
| 27> S -1.8046645176423606 3.132637341024398 3.370188421207819
| 28> C 0.2508895899657851 -3.791415855848287 -4.102326684397283
| 29> C -2.3475279267849127 5.041175729299539 0.5143811924897715
| 30> C -0.7356333592052379 -5.10310878934347 -2.162869515240999
| 31> C -3.3514852238056703 3.687651321290557 2.528751360892221
| 32> C -0.24739212371396443 -5.126991054050085 -3.594830876723367
| 33> H -1.641758546077567 -4.496420075618354 -1.9052077991049954
| 34> H -1.3635506015512098 -5.978991712319627 -1.84462473885437
| 35> H -1.1631006967684197 -5.316094646583543 -4.1884449929466205
| 36> H 0.6230275355461846 -5.799784142551002 -3.607039831258617
| 37> H 0.3492434001497606 -3.6970368188211293 -5.217700214100728
| 38> H -0.4721594743775302 -2.9411678376383343 -4.201192032929033
| 39> C -3.2397038251820196 5.026472500854961 1.771912118246519
| 40> H -4.000602169970372 3.943939402982568 3.3902487930778555
| 41> H -3.5213292392503726 2.954126001451724 1.7131643253264535
| 42> H -3.004253136636115 5.8668011295868965 2.453633075136333
| 43> H -4.254297142421222 5.444804748593284 1.5473934249830095
| 44> H -2.656252082508572 4.119261662198253 -0.020800952876161377
| 45> H -2.404309556249722 6.09708789821686 0.18191463928383356
| 46> *
| 47>
| 48> % eprnmr
| 49> gtensor true
| 50> Nuclei = all H {aiso,adip,aorb,fgrad,rho}
| 51> Nuclei = all V {aiso,adip,aorb,fgrad,rho}
| 52> end
| 53>
| 54>                          ****END OF INPUT****

CARTESIAN COORDINATES (ANGSTROEM)
---------------------------------
  V      0.991144    0.021227    0.513763
  S     -0.718850    0.594623    2.172952
  S      0.114779   -2.260954    0.658687
  S      0.527742    2.275189   -0.325448
  S      1.390605   -0.580092   -1.828483
  O      2.405871    0.054221    1.253162
  C      0.722102   -3.026408   -0.839384
  C      1.225804   -2.360794   -1.824235
  C     -0.884643    2.331754    2.063191
  C     -0.339404    3.067179    0.970527
  S      0.527962   -4.838201   -0.840447
  S      1.813475   -3.132608   -3.366814
  S     -0.539286    4.837963    0.835042
  S     -1.803596    3.132587    3.370701
  C      0.251959   -3.791466   -4.101814
  C     -2.346459    5.041126    0.514894
  C     -0.734564   -5.103159   -2.162357
  C     -3.350416    3.687601    2.529264
  C     -0.246323   -5.127041   -3.594318
  H     -1.640690   -4.496470   -1.904695
  H     -1.362482   -5.979042   -1.844112
  H     -1.162032   -5.316145   -4.187932
  H      0.624097   -5.799834   -3.606527
  H      0.350312   -3.697087   -5.217187
  H     -0.471090   -2.941218   -4.200679
  C     -3.238635    5.026422    1.772425
  H     -3.999533    3.943889    3.390762
  H     -3.520260    2.954076    1.713677
  H     -3.003184    5.866751    2.454146
  H     -4.253228    5.444755    1.547906
  H     -2.655183    4.119212   -0.020288
  H     -2.403241    6.097038    0.182428

 Total Charge           Charge          ....   -2
 Multiplicity           Mult            ....    2
 Number of Electrons    NEL             ....  233
 Basis Dimension        Dim             ....  517

ORBITAL ENERGIES
----------------
                 SPIN UP ORBITALS
  NO   OCC          E(Eh)            E(eV)
   0   1.0000    -196.640439     -5350.8584
   1   1.0000     -88.679918     -2413.1032
   2   1.0000     -88.679843     -2413.1012
   3   1.0000     -88.674616     -2412.9590
   4   1.0000     -88.674608     -2412.9588
   5   1.0000     -88.613255     -2411.2893
   6   1.0000     -88.613109     -2411.2853
   7   1.0000     -88.611507     -2411.2417
   8   1.0000     -88.611446     -2411.2400
   9   1.0000     -22.016227      -599.0920
  10   1.0000     -18.857492      -513.1384
  11   1.0000     -18.523048      -504.0378
  12   1.0000     -18.517278      -503.8808
  13   1.0000     -18.517242      -503.8798
  14   1.0000     -10.020846      -272.6811
  15   1.0000     -10.020836      -272.6808
  16   1.0000     -10.020431      -272.6698
  17   1.0000     -10.020340      -272.6673
  18   1.0000     -10.015177      -272.5268
  19   1.0000     -10.001814      -272.1632
  20   1.0000      -9.995081      -271.9800
  21   1.0000      -9.994633      -271.9678
  22   1.0000      -9.987868      -271.7837
  23   1.0000      -9.986661      -271.7509
  24   1.0000      -7.733131      -210.4292
  25   1.0000      -7.733072      -210.4276
  26   1.0000      -7.728556      -210.3047
  27   1.0000      -7.728547      -210.3045
  28   1.0000      -7.667933      -208.6551
  29   1.0000      -7.667852      -208.6529
  30   1.0000      -7.665681      -208.5938
  31   1.0000      -7.665632      -208.5924
  32   1.0000      -5.698390      -155.0611
  33   1.0000      -5.698340      -155.0597
  34   1.0000      -5.694556      -154.9567
  35   1.0000      -5.694493      -154.9550
  36   1.0000      -5.693775      -154.9355
  37   1.0000      -5.693769      -154.9353
  38   1.0000      -5.689829      -154.8281
  39   1.0000      -5.689827      -154.8281
  40   1.0000      -5.687872      -154.7749
  41   1.0000      -5.687805      -154.7730
  42   1.0000      -5.683361      -154.6521
  43   1.0000      -5.683356      -154.6520
  44   1.0000      -5.632565      -153.2699
  45   1.0000      -5.632467      -153.2672
  46   1.0000      -5.630757      -153.2207
  47   1.0000      -5.630704      -153.2192
  48   1.0000      -5.626348      -153.1007
  49   1.0000      -5.626242      -153.0978
  50   1.0000      -5.626125      -153.0946
  51   1.0000      -5.626036      -153.0922
  52   1.0000      -5.624153      -153.0410
  53   1.0000      -5.624088      -153.0392
  54   1.0000      -5.623437      -153.0215
  55   1.0000      -5.623391      -153.0203
  56   1.0000      -2.409918       -65.5772
  57   1.0000      -1.451279       -39.4913
  58   1.0000      -1.439699       -39.1762
  59   1.0000      -1.438620       -39.1468
  60   1.0000      -0.648234       -17.6394
  61   1.0000      -0.641394       -17.4532
  62   1.0000      -0.618512       -16.8306
  63   1.0000      -0.602029       -16.3820
  64   1.0000      -0.587906       -15.9977
  65   1.0000      -0.576513       -15.6877
  66   1.0000      -0.575172       -15.6512
  67   1.0000      -0.494069       -13.4443
  68   1.0000      -0.489511       -13.3203
  69   1.0000      -0.489119       -13.3096
  70   1.0000      -0.484765       -13.1911
  71   1.0000      -0.423214       -11.5162
  72   1.0000      -0.420353       -11.4384
  73   1.0000      -0.418752       -11.3948
  74   1.0000      -0.403507       -10.9800
  75   1.0000      -0.389120       -10.5885
  76   1.0000      -0.366162        -9.9638
  77   1.0000      -0.304831        -8.2949
  78   1.0000      -0.299605        -8.1527
  79   1.0000      -0.271430        -7.3860
  80   1.0000      -0.267666        -7.2836
  81   1.0000      -0.257125        -6.9967
  82   1.0000      -0.256008        -6.9663
  83   1.0000      -0.247483        -6.7344
  84   1.0000      -0.243035        -6.6133
  85   1.0000      -0.206118        -5.6088
  86   1.0000      -0.195021        -5.3068
  87   1.0000      -0.185688        -5.0528
  88   1.0000      -0.180885        -4.9221
  89   1.0000      -0.177660        -4.8344
  90   1.0000      -0.175149        -4.7661
  91   1.0000      -0.169375        -4.6089
  92   1.0000      -0.151058        -4.1105
  93   1.0000      -0.146491        -3.9862
  94   1.0000      -0.139468        -3.7951
  95   1.0000      -0.137411        -3.7391
  96   1.0000      -0.134603        -3.6627
  97   1.0000      -0.098035        -2.6677
  98   1.0000      -0.097848        -2.6626
  99   1.0000      -0.091016        -2.4767
 100   1.0000      -0.083307        -2.2669
 101   1.0000      -0.080684        -2.1955
 102   1.0000      -0.077219        -2.1012
 103   1.0000      -0.069410        -1.8887
 104   1.0000      -0.051826        -1.4102
 105   1.0000      -0.038806        -1.0560
 106   1.0000      -0.038549        -1.0490
 107   1.0000      -0.034290        -0.9331
 108   1.0000      -0.032656        -0.8886
 109   1.0000      -0.013438        -0.3657
 110   1.0000      -0.005416        -0.1474
 111   1.0000      -0.003330        -0.0906
 112   1.0000       0.006564         0.1786
 113   1.0000       0.010432         0.2839
 114   1.0000       0.015993         0.4352
 115   1.0000       0.032259         0.8778
 116   1.0000       0.060198         1.6381
 117   0.0000       0.185435         5.0459
 118   0.0000       0.189837         5.1657
 119   0.0000       0.191076         5.1994
 120   0.0000       0.195336         5.3154
 121   0.0000       0.210671         5.7327

                 SPIN DOWN ORBITALS
  NO   OCC          E(Eh)            E(eV)
   0   1.0000    -196.640580     -5350.8622
   1   1.0000     -88.679931     -2413.1036
   2   1.0000     -88.679857     -2413.1016
   3   1.0000     -88.674629     -2412.9593
   4   1.0000     -88.674622     -2412.9591
   5   1.0000     -88.613411     -2411.2935
   6   1.0000     -88.613265     -2411.2895
   7   1.0000     -88.611670     -2411.2461
   8   1.0000     -88.611609     -2411.2445
   9   1.0000     -22.001561      -598.6929
  10   1.0000     -18.861077      -513.2360
  11   1.0000     -18.517916      -503.8981
  12   1.0000     -18.501788      -503.4593
  13   1.0000     -18.501113      -503.4409
  14   1.0000     -10.020842      -272.6810
  15   1.0000     -10.020833      -272.6807
  16   1.0000     -10.020427      -272.6697
  17   1.0000     -10.020336      -272.6672
  18   1.0000     -10.015177      -272.5268
  19   1.0000     -10.001814      -272.1632
  20   1.0000      -9.994835      -271.9733
  21   1.0000      -9.994389      -271.9611
  22   1.0000      -9.987603      -271.7765
  23   1.0000      -9.986398      -271.7437
  24   1.0000      -7.733145      -210.4296
  25   1.0000      -7.733086      -210.4280
  26   1.0000      -7.728570      -210.3051
  27   1.0000      -7.728561      -210.3048
  28   1.0000      -7.668078      -208.6590
  29   1.0000      -7.667998      -208.6568
  30   1.0000      -7.665832      -208.5979
  31   1.0000      -7.665782      -208.5965
  32   1.0000      -5.698407      -155.0615
  33   1.0000      -5.698356      -155.0602
  34   1.0000      -5.694576      -154.9573
  35   1.0000      -5.694513      -154.9556
  36   1.0000      -5.693792      -154.9359
  37   1.0000      -5.693786      -154.9358
  38   1.0000      -5.689849      -154.8287
  39   1.0000      -5.689848      -154.8286
  40   1.0000      -5.687888      -154.7753
  41   1.0000      -5.687821      -154.7735
  42   1.0000      -5.683378      -154.6526
  43   1.0000      -5.683373      -154.6525
  44   1.0000      -5.632732      -153.2744
  45   1.0000      -5.632634      -153.2718
  46   1.0000      -5.630933      -153.2255
  47   1.0000      -5.630880      -153.2240
  48   1.0000      -5.626711      -153.1106
  49   1.0000      -5.626606      -153.1077
  50   1.0000      -5.626275      -153.0987
  51   1.0000      -5.626186      -153.0963
  52   1.0000      -5.624560      -153.0520
  53   1.0000      -5.624494      -153.0503
  54   1.0000      -5.623568      -153.0251
  55   1.0000      -5.623522      -153.0238
  56   1.0000      -2.365742       -64.3751
  57   1.0000      -1.432444       -38.9788
  58   1.0000      -1.378295       -37.5053
  59   1.0000      -1.377657       -37.4879
  60   1.0000      -0.648171       -17.6376
  61   1.0000      -0.641354       -17.4521
  62   1.0000      -0.626187       -17.0394
  63   1.0000      -0.601798       -16.3758
  64   1.0000      -0.587737       -15.9931
  65   1.0000      -0.576504       -15.6875
  66   1.0000      -0.575171       -15.6512
  67   1.0000      -0.494075       -13.4445
  68   1.0000      -0.489522       -13.3206
  69   1.0000      -0.489169       -13.3110
  70   1.0000      -0.484779       -13.1915
  71   1.0000      -0.423459       -11.5229
  72   1.0000      -0.420661       -11.4468
  73   1.0000      -0.418800       -11.3961
  74   1.0000      -0.403555       -10.9813
  75   1.0000      -0.389123       -10.5886
  76   1.0000      -0.366151        -9.9635
  77   1.0000      -0.304808        -8.2943
  78   1.0000      -0.299579        -8.1520
  79   1.0000      -0.271420        -7.3857
  80   1.0000      -0.267618        -7.2823
  81   1.0000      -0.256985        -6.9929
  82   1.0000      -0.255979        -6.9656
  83   1.0000      -0.247340        -6.7305
  84   1.0000      -0.242948        -6.6110
  85   1.0000      -0.205980        -5.6050
  86   1.0000      -0.194981        -5.3057
  87   1.0000      -0.183890        -5.0039
  88   1.0000      -0.180878        -4.9219
  89   1.0000      -0.177559        -4.8316
  90   1.0000      -0.174411        -4.7460
  91   1.0000      -0.169293        -4.6067
  92   1.0000      -0.150373        -4.0919
  93   1.0000      -0.146180        -3.9778
  94   1.0000      -0.139281        -3.7900
  95   1.0000      -0.137181        -3.7329
  96   1.0000      -0.134485        -3.6595
  97   1.0000      -0.097567        -2.6549
  98   1.0000      -0.096385        -2.6228
  99   1.0000      -0.090990        -2.4760
 100   1.0000      -0.083517        -2.2726
 101   1.0000      -0.082442        -2.2434
 102   1.0000      -0.076898        -2.0925
 103   1.0000      -0.070607        -1.9213
 104   1.0000      -0.048702        -1.3252
 105   1.0000      -0.037737        -1.0269
 106   1.0000      -0.037510        -1.0207
 107   1.0000      -0.033757        -0.9186
 108   1.0000      -0.032622        -0.8877
 109   1.0000      -0.012524        -0.3408
 110   1.0000      -0.006624        -0.1802
 111   1.0000      -0.002221        -0.0604
 112   1.0000       0.007192         0.1957
 113   1.0000       0.011328         0.3082
 114   1.0000       0.032455         0.8831
 115   1.0000       0.059460         1.6180
 116   0.0000       0.184634         5.0241
 117   0.0000       0.186357         5.0710
 118   0.0000       0.189977         5.1695
 119   0.0000       0.191411         5.2086
 120   0.0000       0.196042         5.3346

MULLIKEN ATOMIC CHARGES AND SPIN POPULATIONS
--------------------------------------------
   0 V :    0.447175    1.199124
   1 S :   -0.240166   -0.023298
   2 S :   -0.267366   -0.024891
   3 S :   -0.240385   -0.023228
   4 S :   -0.267711   -0.024807
   5 O :   -0.506239   -0.138934
   6 C :   -0.094744    0.009555
   7 C :   -0.093268    0.009546
   8 C :   -0.135329    0.008309
   9 C :   -0.135606    0.008242
  10 S :   -0.039170   -0.000185
  11 S :   -0.039136   -0.000216
  12 S :   -0.034061   -0.000198
  13 S :   -0.034065   -0.000230
  14 C :   -0.354185    0.000230
  15 C :   -0.326823    0.000350
  16 C :   -0.353523    0.000217
  17 C :   -0.326856    0.000374
  18 C :   -0.056490    0.000198
  19 H :    0.136060   -0.000119
  20 H :    0.097545    0.000029
  21 H :    0.036665    0.000018
  22 H :    0.096675   -0.000016
  23 H :    0.097481    0.000030
  24 H :    0.136495   -0.000119
  25 C :   -0.110290    0.000045
  26 H :    0.097221    0.000038
  27 H :    0.152938   -0.000123
  28 H :    0.061602    0.000039
  29 H :    0.045489    0.000101
  30 H :    0.152702   -0.000117
  31 H :    0.097367    0.000035
Sum of atomic charges         :   -2.0000000

LOEWDIN ATOMIC CHARGES AND SPIN POPULATIONS
-------------------------------------------
   0 V :   -0.242804    1.153113
   1 S :    0.104188   -0.015692
   2 S :    0.073285   -0.016948
   3 S :    0.103910   -0.015623
   4 S :    0.072936   -0.016913
   5 O :   -0.350811   -0.124354
   6 C :   -0.531440    0.010560
   7 C :   -0.530988    0.010516
   8 C :   -0.574803    0.009482
   9 C :   -0.575167    0.009500
  10 S :    0.334042   -0.001022
  11 S :    0.333862   -0.001039
  12 S :    0.341967   -0.001054
  13 S :    0.341910   -0.001069
  14 C :   -0.320647    0.000151
  15 C :   -0.296049    0.000180
  16 C :   -0.320727    0.000144
  17 C :   -0.296184    0.000192
  18 C :   -0.176902   -0.000030
  19 H :    0.068437   -0.000044
  20 H :    0.052993    0.000008
  21 H :    0.059782    0.000014
  22 H :    0.067452    0.000011
  23 H :    0.053013    0.000009
  24 H :    0.068604   -0.000044
  25 C :   -0.207024   -0.000047
  26 H :    0.055222    0.000005
  27 H :    0.075790   -0.000026
  28 H :    0.043298    0.000012
  29 H :    0.042033    0.000029
  30 H :    0.075702   -0.000025
  31 H :    0.055121    0.000004

  Mayer bond orders larger than 0.100000
B(  0-V ,  1-S ) :   0.7849 B(  0-V ,  2-S ) :   0.7936 B(  0-V ,  3-S ) :   0.7871
B(  0-V ,  4-S ) :   0.7910 B(  0-V ,  5-O ) :   2.1083 B(  1-S ,  8-C ) :   1.1542
B(  2-S ,  6-C ) :   1.1181 B(  3-S ,  9-C ) :   1.1531 B(  4-S ,  7-C ) :   1.1191
B(  6-C ,  7-C ) :   1.5719 B(  6-C , 10-S ) :   0.9299 B(  7-C , 11-S ) :   0.9300
B(  8-C ,  9-C ) :   1.4409 B(  8-C , 13-S ) :   0.9786 B(  9-C , 12-S ) :   0.9789
B( 10-S , 16-C ) :   1.0265 B( 11-S , 14-C ) :   1.0266 B( 12-S , 15-C ) :   1.0115
B( 13-S , 17-C ) :   1.0119 B( 14-C , 18-C ) :   0.9025 B( 14-C , 23-H ) :   0.9622
B( 14-C , 24-H ) :   0.9571 B( 15-C , 25-C ) :   0.8834 B( 15-C , 30-H ) :   0.9722
B( 15-C , 31-H ) :   0.9639 B( 16-C , 18-C ) :   0.9026 B( 16-C , 19-H ) :   0.9571
B( 16-C , 20-H ) :   0.9621 B( 17-C , 25-C ) :   0.8834 B( 17-C , 26-H ) :   0.9640
B( 17-C , 27-H ) :   0.9720 B( 18-C , 21-H ) :   0.9446 B( 18-C , 22-H ) :   0.9834
B( 25-C , 28-H ) :   0.9562 B( 25-C , 29-H ) :   0.9475

FINAL SINGLE POINT ENERGY     -4592.652307789721

DIPOLE MOMENT
-------------
                                X             Y             Z
Electronic contribution:     23.99799      -0.29974      11.87595
Nuclear contribution   :    -26.62890       0.08564     -13.34607
                        -----------------------------------------
Total Dipole Moment    :     -2.63091      -0.21409      -1.47012
                        -----------------------------------------
Magnitude (a.u.)       :      3.02139
Magnitude (Debye)      :      7.67976

Rotational constants in cm-1:     0.012768     0.002548     0.002431
Rotational constants in MHz :   382.776072    76.396328    72.880602

                             ****ORCA TERMINATED NORMALLY****
TOTAL RUN TIME: 0 days 0 hours 43 minutes 23 seconds 535 msec
