                         Program Version 5.0.4 -  RELEASE  -
|  1> ! nofrozencore ReducedPop printbasis
|  2> ! B3LYP TZVP
|  3>
|  4> %basis
|  5> newgto V "CP(PPP)" end
|  6> end
|  7>
|  8> %pal
|  9> nprocs 8
| 10> end
| 11>
| 12> % sym SymThresh 1e-2 end
| 13> * xyz -2 2
| 14> V 0.8330663607972426 -0.7363581811688354 -0.10497911870349663
| 15> S -0.9670185215956223 -1.7141930415901119 1.249689518978637
| 16> S -0.8034331641078659 -1.0632217162929052 -1.9005405422007684
| 17> S 1.3010004154722874 0.5282976470459497 1.937721128115098
| 18> S 1.49745046780664 1.2043143600075312 -1.4472245834998532
| 19> O 1.8594453164102416 -1.9548739040145546 -0.2930109137317408
| 20> C -0.19293981640433777 -0.0454903417983437 -3.224331981786759
| 21> C 0.7210387136865334 0.9388611405609688 -3.0059446933449765
| 22> C -0.5120156445279752 -1.2988720537393963 2.9161475039626175
| 23> C 0.3929836381984684 -0.31943303016113717 3.1875406461801186
| 24> S -0.9088230430995939 -0.2647879577320028 -4.869674458951986
| 25> S 1.3405269243428728 2.0819942481543596 -4.25334761679621
| 26> S 0.8607822869456417 0.23841714195350977 4.835170460802013
| 27> S -1.3785032873694285 -2.131702128585306 4.267464548556971
| 28> C -0.047951107530074616 3.226857791938285 -4.625514078013146
| 29> C -0.5899554706192327 1.162781694880061 5.480867492730717
| 30> C -1.7905573457081896 1.3653841236035817 -5.062597760565194
| 31> C -2.321474409994678 -0.6957601145379942 4.985241374667724
| 32> C -1.0440644053067092 2.6025530072782117 -5.589403558453771
| 33> H -2.2203537966893845 1.5778286611614287 -4.079541516592958
| 34> H -2.620598830192146 1.1510757856717901 -5.747411570319775
| 35> H -1.8147783874156282 3.3508822412035824 -5.845393252001151
| 36> H -0.5237554998615183 2.348529510887191 -6.5195892158371285
| 37> H 0.42640788672745195 4.1058009160618125 -5.080548677492087
| 38> H -0.5181837733031307 3.54033758467609 -3.687948175103901
| 39> C -1.6608948111223663 0.22830883306794714 6.020988865698304
| 40> H -3.206293179873634 -1.1500722650443913 5.448127952672687
| 41> H -2.6619301664688755 -0.11398776863325676 4.123978291858481
| 42> H -1.2287164377204232 -0.37532399297371694 6.82680404722978
| 43> H -2.4700257393266196 0.831185800536192 6.469002661696391
| 44> H -0.9729708923174198 1.8234227278731103 4.696545186366657
| 45> H -0.18741793089978168 1.7886787899848169 6.28742132728241
| 46> *
| 47>
| 48> % eprnmr
| 49> gtensor true
| 50> Nuclei = all H {aiso,adip,aorb,fgrad,rho}
| 51> Nuclei = all V {aiso,adip,aorb,fgrad,rho}
| 52> end
| 53>
| 54>                          ****END OF INPUT****

CARTESIAN COORDINATES (ANGSTROEM)
---------------------------------
  V      0.833910   -0.737168   -0.105182
  S     -0.966175   -1.715003    1.249487
  S     -0.802589   -1.064031   -1.900743
  S      1.301844    0.527488    1.937518
  S      1.498294    1.203505   -1.447427
  O      1.860289   -1.955684   -0.293214
  C     -0.192096   -0.046300   -3.224535
  C      0.721883    0.938051   -3.006147
  C     -0.511172   -1.299682    2.915945
  C      0.393827   -0.320243    3.187338
  S     -0.907979   -0.265598   -4.869877
  S      1.341371    2.081185   -4.253550
  S      0.861626    0.237607    4.834968
  S     -1.377659   -2.132512    4.267262
  C     -0.047107    3.226048   -4.625717
  C     -0.589112    1.161972    5.480665
  C     -1.789714    1.364574   -5.062800
  C     -2.320631   -0.696570    4.985039
  C     -1.043221    2.601743   -5.589606
  H     -2.219510    1.577019   -4.079744
  H     -2.619755    1.150266   -5.747614
  H     -1.813935    3.350073   -5.845596
  H     -0.522912    2.347720   -6.519792
  H      0.427252    4.104991   -5.080751
  H     -0.517340    3.539528   -3.688151
  C     -1.660051    0.227499    6.020786
  H     -3.205449   -1.150882    5.447925
  H     -2.661086   -0.114797    4.123776
  H     -1.227873   -0.376134    6.826601
  H     -2.469182    0.830376    6.468800
  H     -0.972127    1.822613    4.696343
  H     -0.186574    1.787869    6.287219

 Total Charge           Charge          ....   -2
 Multiplicity           Mult            ....    2
 Number of Electrons    NEL             ....  233
 Basis Dimension        Dim             ....  517

ORBITAL ENERGIES
----------------
                 SPIN UP ORBITALS
  NO   OCC          E(Eh)            E(eV)
   0   1.0000    -196.641042     -5350.8748
   1   1.0000     -88.679258     -2413.0853
   2   1.0000     -88.679118     -2413.0815
   3   1.0000     -88.674067     -2412.9440
   4   1.0000     -88.674032     -2412.9431
   5   1.0000     -88.613661     -2411.3003
   6   1.0000     -88.613507     -2411.2961
   7   1.0000     -88.610902     -2411.2252
   8   1.0000     -88.610771     -2411.2217
   9   1.0000     -22.016752      -599.1063
  10   1.0000     -18.856209      -513.1035
  11   1.0000     -18.523598      -504.0527
  12   1.0000     -18.517811      -503.8952
  13   1.0000     -18.517759      -503.8938
  14   1.0000     -10.016437      -272.5611
  15   1.0000     -10.016213      -272.5550
  16   1.0000     -10.015719      -272.5416
  17   1.0000     -10.015595      -272.5382
  18   1.0000     -10.005246      -272.2566
  19   1.0000     -10.005080      -272.2521
  20   1.0000      -9.993085      -271.9257
  21   1.0000      -9.993050      -271.9247
  22   1.0000      -9.990580      -271.8575
  23   1.0000      -9.990426      -271.8533
  24   1.0000      -7.732423      -210.4099
  25   1.0000      -7.732302      -210.4066
  26   1.0000      -7.728095      -210.2921
  27   1.0000      -7.728051      -210.2910
  28   1.0000      -7.667742      -208.6499
  29   1.0000      -7.667557      -208.6448
  30   1.0000      -7.665589      -208.5913
  31   1.0000      -7.665479      -208.5883
  32   1.0000      -5.697670      -155.0415
  33   1.0000      -5.697547      -155.0381
  34   1.0000      -5.693856      -154.9377
  35   1.0000      -5.693738      -154.9345
  36   1.0000      -5.693361      -154.9242
  37   1.0000      -5.693313      -154.9229
  38   1.0000      -5.689374      -154.8157
  39   1.0000      -5.689342      -154.8149
  40   1.0000      -5.687209      -154.7568
  41   1.0000      -5.687081      -154.7533
  42   1.0000      -5.682792      -154.6366
  43   1.0000      -5.682745      -154.6353
  44   1.0000      -5.632751      -153.2749
  45   1.0000      -5.632573      -153.2701
  46   1.0000      -5.630321      -153.2088
  47   1.0000      -5.630200      -153.2055
  48   1.0000      -5.626205      -153.0968
  49   1.0000      -5.626033      -153.0921
  50   1.0000      -5.625558      -153.0792
  51   1.0000      -5.625392      -153.0747
  52   1.0000      -5.624006      -153.0370
  53   1.0000      -5.623902      -153.0341
  54   1.0000      -5.623690      -153.0284
  55   1.0000      -5.623575      -153.0253
  56   1.0000      -2.410044       -65.5806
  57   1.0000      -1.450635       -39.4738
  58   1.0000      -1.439980       -39.1838
  59   1.0000      -1.438781       -39.1512
  60   1.0000      -0.643665       -17.5150
  61   1.0000      -0.643600       -17.5133
  62   1.0000      -0.616879       -16.7861
  63   1.0000      -0.593866       -16.1599
  64   1.0000      -0.593419       -16.1477
  65   1.0000      -0.574714       -15.6388
  66   1.0000      -0.574509       -15.6332
  67   1.0000      -0.490950       -13.3594
  68   1.0000      -0.489145       -13.3103
  69   1.0000      -0.487485       -13.2651
  70   1.0000      -0.486096       -13.2273
  71   1.0000      -0.423171       -11.5151
  72   1.0000      -0.420093       -11.4313
  73   1.0000      -0.411945       -11.2096
  74   1.0000      -0.406795       -11.0694
  75   1.0000      -0.376298       -10.2396
  76   1.0000      -0.373014       -10.1502
  77   1.0000      -0.292362        -7.9556
  78   1.0000      -0.292150        -7.9498
  79   1.0000      -0.278897        -7.5892
  80   1.0000      -0.278437        -7.5766
  81   1.0000      -0.259067        -7.0496
  82   1.0000      -0.254149        -6.9158
  83   1.0000      -0.241803        -6.5798
  84   1.0000      -0.239058        -6.5051
  85   1.0000      -0.196436        -5.3453
  86   1.0000      -0.195227        -5.3124
  87   1.0000      -0.192321        -5.2333
  88   1.0000      -0.187938        -5.1141
  89   1.0000      -0.184419        -5.0183
  90   1.0000      -0.184077        -5.0090
  91   1.0000      -0.179684        -4.8895
  92   1.0000      -0.152301        -4.1443
  93   1.0000      -0.149625        -4.0715
  94   1.0000      -0.142908        -3.8887
  95   1.0000      -0.142307        -3.8724
  96   1.0000      -0.140043        -3.8108
  97   1.0000      -0.098313        -2.6752
  98   1.0000      -0.094519        -2.5720
  99   1.0000      -0.089862        -2.4453
 100   1.0000      -0.083064        -2.2603
 101   1.0000      -0.080329        -2.1859
 102   1.0000      -0.077639        -2.1127
 103   1.0000      -0.068166        -1.8549
 104   1.0000      -0.050362        -1.3704
 105   1.0000      -0.038274        -1.0415
 106   1.0000      -0.037771        -1.0278
 107   1.0000      -0.035846        -0.9754
 108   1.0000      -0.031991        -0.8705
 109   1.0000      -0.013892        -0.3780
 110   1.0000      -0.003872        -0.1054
 111   1.0000      -0.001927        -0.0524
 112   1.0000       0.006694         0.1821
 113   1.0000       0.008135         0.2214
 114   1.0000       0.019177         0.5218
 115   1.0000       0.033849         0.9211
 116   1.0000       0.060123         1.6360
 117   0.0000       0.186664         5.0794
 118   0.0000       0.193648         5.2694
 119   0.0000       0.196425         5.3450
 120   0.0000       0.196588         5.3494
 121   0.0000       0.209511         5.7011

                 SPIN DOWN ORBITALS
  NO   OCC          E(Eh)            E(eV)
   0   1.0000    -196.641179     -5350.8785
   1   1.0000     -88.679268     -2413.0856
   2   1.0000     -88.679128     -2413.0817
   3   1.0000     -88.674085     -2412.9445
   4   1.0000     -88.674049     -2412.9436
   5   1.0000     -88.613829     -2411.3049
   6   1.0000     -88.613675     -2411.3007
   7   1.0000     -88.611053     -2411.2293
   8   1.0000     -88.610922     -2411.2258
   9   1.0000     -22.002032      -598.7057
  10   1.0000     -18.859875      -513.2033
  11   1.0000     -18.518405      -503.9114
  12   1.0000     -18.502292      -503.4730
  13   1.0000     -18.501579      -503.4536
  14   1.0000     -10.016435      -272.5610
  15   1.0000     -10.016210      -272.5549
  16   1.0000     -10.015714      -272.5414
  17   1.0000     -10.015590      -272.5380
  18   1.0000     -10.005246      -272.2566
  19   1.0000     -10.005080      -272.2521
  20   1.0000      -9.992850      -271.9193
  21   1.0000      -9.992812      -271.9182
  22   1.0000      -9.990318      -271.8504
  23   1.0000      -9.990160      -271.8461
  24   1.0000      -7.732433      -210.4102
  25   1.0000      -7.732313      -210.4069
  26   1.0000      -7.728113      -210.2926
  27   1.0000      -7.728069      -210.2915
  28   1.0000      -7.667897      -208.6541
  29   1.0000      -7.667712      -208.6490
  30   1.0000      -7.665731      -208.5951
  31   1.0000      -7.665620      -208.5921
  32   1.0000      -5.697684      -155.0419
  33   1.0000      -5.697562      -155.0385
  34   1.0000      -5.693873      -154.9382
  35   1.0000      -5.693756      -154.9350
  36   1.0000      -5.693381      -154.9248
  37   1.0000      -5.693333      -154.9235
  38   1.0000      -5.689397      -154.8164
  39   1.0000      -5.689365      -154.8155
  40   1.0000      -5.687216      -154.7570
  41   1.0000      -5.687089      -154.7536
  42   1.0000      -5.682819      -154.6374
  43   1.0000      -5.682772      -154.6361
  44   1.0000      -5.632924      -153.2797
  45   1.0000      -5.632746      -153.2748
  46   1.0000      -5.630490      -153.2134
  47   1.0000      -5.630368      -153.2101
  48   1.0000      -5.626627      -153.1083
  49   1.0000      -5.626457      -153.1037
  50   1.0000      -5.625697      -153.0830
  51   1.0000      -5.625530      -153.0784
  52   1.0000      -5.624363      -153.0467
  53   1.0000      -5.624258      -153.0439
  54   1.0000      -5.623822      -153.0320
  55   1.0000      -5.623708      -153.0289
  56   1.0000      -2.365706       -64.3741
  57   1.0000      -1.431540       -38.9542
  58   1.0000      -1.378425       -37.5088
  59   1.0000      -1.377768       -37.4910
  60   1.0000      -0.643619       -17.5138
  61   1.0000      -0.643551       -17.5119
  62   1.0000      -0.624825       -17.0024
  63   1.0000      -0.593689       -16.1551
  64   1.0000      -0.593217       -16.1423
  65   1.0000      -0.574705       -15.6385
  66   1.0000      -0.574500       -15.6329
  67   1.0000      -0.490977       -13.3602
  68   1.0000      -0.489176       -13.3112
  69   1.0000      -0.487496       -13.2654
  70   1.0000      -0.486128       -13.2282
  71   1.0000      -0.423419       -11.5218
  72   1.0000      -0.420408       -11.4399
  73   1.0000      -0.411959       -11.2100
  74   1.0000      -0.406894       -11.0722
  75   1.0000      -0.376255       -10.2384
  76   1.0000      -0.373045       -10.1511
  77   1.0000      -0.292339        -7.9549
  78   1.0000      -0.292141        -7.9496
  79   1.0000      -0.278873        -7.5885
  80   1.0000      -0.278430        -7.5765
  81   1.0000      -0.258853        -7.0438
  82   1.0000      -0.254101        -6.9144
  83   1.0000      -0.241709        -6.5772
  84   1.0000      -0.238992        -6.5033
  85   1.0000      -0.196248        -5.3402
  86   1.0000      -0.195200        -5.3117
  87   1.0000      -0.191814        -5.2195
  88   1.0000      -0.187887        -5.1127
  89   1.0000      -0.184350        -5.0164
  90   1.0000      -0.184022        -5.0075
  91   1.0000      -0.177826        -4.8389
  92   1.0000      -0.151696        -4.1279
  93   1.0000      -0.149308        -4.0629
  94   1.0000      -0.142591        -3.8801
  95   1.0000      -0.142197        -3.8694
  96   1.0000      -0.139839        -3.8052
  97   1.0000      -0.097570        -2.6550
  98   1.0000      -0.093369        -2.5407
  99   1.0000      -0.089845        -2.4448
 100   1.0000      -0.083331        -2.2675
 101   1.0000      -0.080081        -2.1791
 102   1.0000      -0.079350        -2.1592
 103   1.0000      -0.069525        -1.8919
 104   1.0000      -0.046228        -1.2579
 105   1.0000      -0.038350        -1.0436
 106   1.0000      -0.037229        -1.0131
 107   1.0000      -0.034939        -0.9507
 108   1.0000      -0.031824        -0.8660
 109   1.0000      -0.012836        -0.3493
 110   1.0000      -0.005260        -0.1431
 111   1.0000      -0.001077        -0.0293
 112   1.0000       0.007617         0.2073
 113   1.0000       0.011880         0.3233
 114   1.0000       0.034107         0.9281
 115   1.0000       0.059302         1.6137
 116   0.0000       0.185155         5.0383
 117   0.0000       0.187913         5.1134
 118   0.0000       0.194309         5.2874
 119   0.0000       0.196498         5.3470
 120   0.0000       0.197216         5.3665

MULLIKEN ATOMIC CHARGES AND SPIN POPULATIONS
--------------------------------------------
   0 V :    0.444287    1.202343
   1 S :   -0.243468   -0.028561
   2 S :   -0.242990   -0.028449
   3 S :   -0.263951   -0.019574
   4 S :   -0.264652   -0.019468
   5 O :   -0.506765   -0.141981
   6 C :   -0.075153    0.010096
   7 C :   -0.154286    0.007641
   8 C :   -0.074992    0.010017
   9 C :   -0.154609    0.007756
  10 S :   -0.042412    0.000021
  11 S :   -0.044218   -0.000518
  12 S :   -0.044036   -0.000497
  13 S :   -0.042899   -0.000062
  14 C :   -0.302765    0.000231
  15 C :   -0.303701    0.000243
  16 C :   -0.377887    0.000345
  17 C :   -0.375713    0.000401
  18 C :   -0.081263    0.000116
  19 H :    0.159451   -0.000066
  20 H :    0.095612    0.000038
  21 H :    0.043691    0.000028
  22 H :    0.078715    0.000004
  23 H :    0.101464    0.000015
  24 H :    0.137858   -0.000125
  25 C :   -0.081587    0.000117
  26 H :    0.095709    0.000050
  27 H :    0.159134   -0.000078
  28 H :    0.078579    0.000000
  29 H :    0.043753    0.000025
  30 H :    0.137849   -0.000128
  31 H :    0.101246    0.000020
Sum of atomic charges         :   -2.0000000

LOEWDIN ATOMIC CHARGES AND SPIN POPULATIONS
-------------------------------------------
   0 V :   -0.238725    1.156725
   1 S :    0.093041   -0.019421
   2 S :    0.093855   -0.019278
   3 S :    0.082850   -0.013190
   4 S :    0.082193   -0.013186
   5 O :   -0.356400   -0.127424
   6 C :   -0.545529    0.009440
   7 C :   -0.559953    0.010312
   8 C :   -0.545052    0.009283
   9 C :   -0.560156    0.010429
  10 S :    0.330232   -0.000642
  11 S :    0.341902   -0.001474
  12 S :    0.341916   -0.001462
  13 S :    0.330257   -0.000692
  14 C :   -0.294258    0.000105
  15 C :   -0.294402    0.000112
  16 C :   -0.293278    0.000233
  17 C :   -0.293263    0.000256
  18 C :   -0.185773   -0.000039
  19 H :    0.069798   -0.000005
  20 H :    0.046134    0.000012
  21 H :    0.046165    0.000008
  22 H :    0.053710    0.000008
  23 H :    0.049274    0.000000
  24 H :    0.063133   -0.000051
  25 C :   -0.185695   -0.000041
  26 H :    0.046130    0.000018
  27 H :    0.069738   -0.000006
  28 H :    0.053702    0.000006
  29 H :    0.046205    0.000010
  30 H :    0.063122   -0.000051
  31 H :    0.049126    0.000003

  Mayer bond orders larger than 0.100000
B(  0-V ,  1-S ) :   0.7770 B(  0-V ,  2-S ) :   0.7806 B(  0-V ,  3-S ) :   0.8036
B(  0-V ,  4-S ) :   0.8002 B(  0-V ,  5-O ) :   2.1076 B(  1-S ,  8-C ) :   1.1425
B(  2-S ,  6-C ) :   1.1401 B(  3-S ,  9-C ) :   1.1273 B(  4-S ,  7-C ) :   1.1285
B(  6-C ,  7-C ) :   1.5138 B(  6-C , 10-S ) :   0.9297 B(  7-C , 11-S ) :   0.9872
B(  8-C ,  9-C ) :   1.5136 B(  8-C , 13-S ) :   0.9296 B(  9-C , 12-S ) :   0.9864
B( 10-S , 16-C ) :   1.0185 B( 11-S , 14-C ) :   0.9848 B( 12-S , 15-C ) :   0.9863
B( 13-S , 17-C ) :   1.0182 B( 14-C , 18-C ) :   0.8830 B( 14-C , 23-H ) :   0.9716
B( 14-C , 24-H ) :   0.9705 B( 15-C , 25-C ) :   0.8829 B( 15-C , 30-H ) :   0.9706
B( 15-C , 31-H ) :   0.9715 B( 16-C , 18-C ) :   0.8705 B( 16-C , 19-H ) :   0.9777
B( 16-C , 20-H ) :   0.9691 B( 17-C , 25-C ) :   0.8706 B( 17-C , 26-H ) :   0.9692
B( 17-C , 27-H ) :   0.9776 B( 18-C , 21-H ) :   0.9521 B( 18-C , 22-H ) :   0.9733
B( 25-C , 28-H ) :   0.9735 B( 25-C , 29-H ) :   0.9522

FINAL SINGLE POINT ENERGY     -4592.714442117436

DIPOLE MOMENT
-------------
                                X             Y             Z
Electronic contribution:     18.63509     -18.89299      -2.85779
Nuclear contribution   :    -20.73195      21.11416       3.19766
                        -----------------------------------------
Total Dipole Moment    :     -2.09686       2.22116       0.33987
                        -----------------------------------------
Magnitude (a.u.)       :      3.07342
Magnitude (Debye)      :      7.81201

Rotational constants in cm-1:     0.012755     0.002549     0.002430
Rotational constants in MHz :   382.399049    76.418171    72.840109

                             ****ORCA TERMINATED NORMALLY****
TOTAL RUN TIME: 0 days 0 hours 27 minutes 50 seconds 77 msec
