                         Program Version 5.0.4 -  RELEASE  -
|  1> ! nofrozencore ReducedPop printbasis
|  2> ! B3LYP TZVP
|  3>
|  4> %basis
|  5> newgto V "CP(PPP)" end
|  6> end
|  7>
|  8> %pal
|  9> nprocs 8
| 10> end
| 11>
| 12> % sym SymThresh 1e-2 end
| 13> * xyz -2 2
| 14> V 0.1553879426500454 -0.4110253393286558 1.0335524618778427
| 15> S 0.7654178074551569 1.8840820893037968 1.230322128208779
| 16> S -2.1429212652946625 0.21930980334753294 0.9887545742830167
| 17> S 2.2539895133961325 -0.5459080972161131 -0.35417675729379744
| 18> S -0.6130949625674083 -2.2046075580806317 -0.565665453754446
| 19> O 0.5953503190727035 -1.3461912621638936 2.2831691664113754
| 20> C -2.961518270230126 -1.1836996559505855 0.277722691760376
| 21> C -2.3721992326808463 -2.1967336130577566 -0.4125563794823916
| 22> C 2.4622107883407667 1.9195018974264688 0.7170644552190032
| 23> C 3.1149376364422974 0.949203456187819 0.02231793398533237
| 24> S -4.704421832421755 -1.0325134399328026 0.5334570083761851
| 25> S -3.3754358375024474 -3.5533593759862607 -1.1630189041248167
| 26> S 4.867938924912744 1.1702893248998179 -0.5136872533233487
| 27> S 3.177864735807104 3.4707432175637485 1.1726088657198876
| 28> C -4.185843917099682 -2.7376799451412888 -2.606489319405277
| 29> C 4.74083150905566 2.386557497992574 -1.8951520071396533
| 30> C -5.335590574249577 -0.8838269664614938 -1.2080663921534058
| 31> C 3.5657136057417875 4.214450317634097 -0.4850628662006223
| 32> C -5.484983148459002 -2.0901943764067625 -2.1534123904223064
| 33> H -4.701061146704033 -0.13090625245547585 -1.6842084023724089
| 34> H -6.326909517327395 -0.43732545756860763 -1.077120527898543
| 35> H -6.040050249030335 -1.7195158775265937 -3.03613480630415
| 36> H -6.1087742315720055 -2.857899556008334 -1.6803245060851282
| 37> H -4.373997313781944 -3.5268358279330325 -3.3411574918655464
| 38> H -3.4862951450401622 -2.021437000041416 -3.04222213614012
| 39> C 4.784531065269766 3.796359443041166 -1.3275068035222015
| 40> H 3.664094973279726 5.282042070715064 -0.2620177438960254
| 41> H 2.6565004808422845 4.090262017185434 -1.0801872116706706
| 42> H 5.700226382250701 3.902919830644032 -0.7338218341393553
| 43> H 4.84833619619855 4.526530847406092 -2.156485411535649
| 44> H 3.82654272802823 2.184506902214735 -2.4569843460924723
| 45> H 5.596898279221505 2.198739580420488 -2.550768575876825
| 46> *
| 47>
| 48> % eprnmr
| 49> gtensor true
| 50> Nuclei = all H {aiso,adip,aorb,fgrad,rho}
| 51> Nuclei = all V {aiso,adip,aorb,fgrad,rho}
| 52> end
| 53>
| 54>                          ****END OF INPUT****

CARTESIAN COORDINATES (ANGSTROEM)
---------------------------------
  V      0.155543   -0.411601    1.034578
  S      0.765573    1.883506    1.231348
  S     -2.142766    0.218734    0.989780
  S      2.254145   -0.546484   -0.353151
  S     -0.612940   -2.205184   -0.564640
  O      0.595506   -1.346767    2.284195
  C     -2.961363   -1.184276    0.278749
  C     -2.372044   -2.197310   -0.411531
  C      2.462366    1.918926    0.718090
  C      3.115093    0.948627    0.023344
  S     -4.704267   -1.033090    0.534483
  S     -3.375281   -3.553935   -1.161993
  S      4.868094    1.169713   -0.512661
  S      3.178020    3.470167    1.173635
  C     -4.185689   -2.738256   -2.605463
  C      4.740987    2.385981   -1.894126
  C     -5.335435   -0.884403   -1.207041
  C      3.565869    4.213874   -0.484037
  C     -5.484828   -2.090770   -2.152387
  H     -4.700906   -0.131482   -1.683183
  H     -6.326754   -0.437902   -1.076095
  H     -6.039895   -1.720092   -3.035109
  H     -6.108619   -2.858476   -1.679299
  H     -4.373842   -3.527412   -3.340132
  H     -3.486140   -2.022013   -3.041196
  C      4.784686    3.795783   -1.326481
  H      3.664250    5.281466   -0.260992
  H      2.656656    4.089686   -1.079161
  H      5.700382    3.902344   -0.732796
  H      4.848491    4.525955   -2.155460
  H      3.826698    2.183931   -2.455958
  H      5.597054    2.198164   -2.549743

 Total Charge           Charge          ....   -2
 Multiplicity           Mult            ....    2
 Number of Electrons    NEL             ....  233
 Basis Dimension        Dim             ....  517

ORBITAL ENERGIES
----------------
                 SPIN UP ORBITALS
  NO   OCC          E(Eh)            E(eV)
   0   1.0000    -196.642626     -5350.9179
   1   1.0000     -88.679254     -2413.0852
   2   1.0000     -88.679251     -2413.0851
   3   1.0000     -88.674955     -2412.9682
   4   1.0000     -88.674954     -2412.9682
   5   1.0000     -88.616159     -2411.3683
   6   1.0000     -88.616121     -2411.3672
   7   1.0000     -88.609096     -2411.1761
   8   1.0000     -88.608885     -2411.1703
   9   1.0000     -22.018304      -599.1485
  10   1.0000     -18.853874      -513.0400
  11   1.0000     -18.525057      -504.0924
  12   1.0000     -18.519448      -503.9398
  13   1.0000     -18.519322      -503.9364
  14   1.0000     -10.017478      -272.5894
  15   1.0000     -10.017453      -272.5888
  16   1.0000     -10.014040      -272.4959
  17   1.0000     -10.014026      -272.4955
  18   1.0000     -10.005926      -272.2751
  19   1.0000     -10.005886      -272.2740
  20   1.0000      -9.994882      -271.9746
  21   1.0000      -9.994860      -271.9740
  22   1.0000      -9.989257      -271.8215
  23   1.0000      -9.989088      -271.8169
  24   1.0000      -7.732375      -210.4086
  25   1.0000      -7.732354      -210.4081
  26   1.0000      -7.729014      -210.3172
  27   1.0000      -7.728989      -210.3165
  28   1.0000      -7.671052      -208.7399
  29   1.0000      -7.670987      -208.7382
  30   1.0000      -7.663109      -208.5238
  31   1.0000      -7.662886      -208.5177
  32   1.0000      -5.697595      -155.0395
  33   1.0000      -5.697578      -155.0390
  34   1.0000      -5.694330      -154.9506
  35   1.0000      -5.694314      -154.9502
  36   1.0000      -5.693941      -154.9400
  37   1.0000      -5.693920      -154.9394
  38   1.0000      -5.690151      -154.8369
  39   1.0000      -5.690124      -154.8361
  40   1.0000      -5.687042      -154.7523
  41   1.0000      -5.687025      -154.7518
  42   1.0000      -5.683803      -154.6641
  43   1.0000      -5.683777      -154.6634
  44   1.0000      -5.635821      -153.3585
  45   1.0000      -5.635757      -153.3567
  46   1.0000      -5.629447      -153.1851
  47   1.0000      -5.629414      -153.1841
  48   1.0000      -5.629052      -153.1743
  49   1.0000      -5.628984      -153.1724
  50   1.0000      -5.628072      -153.1476
  51   1.0000      -5.627846      -153.1415
  52   1.0000      -5.621670      -152.9734
  53   1.0000      -5.621450      -152.9674
  54   1.0000      -5.620902      -152.9525
  55   1.0000      -5.620679      -152.9464
  56   1.0000      -2.411143       -65.6105
  57   1.0000      -1.449956       -39.4553
  58   1.0000      -1.441454       -39.2239
  59   1.0000      -1.440306       -39.1927
  60   1.0000      -0.643755       -17.5175
  61   1.0000      -0.643560       -17.5122
  62   1.0000      -0.613649       -16.6982
  63   1.0000      -0.596241       -16.2245
  64   1.0000      -0.595881       -16.2147
  65   1.0000      -0.572984       -15.5917
  66   1.0000      -0.572809       -15.5869
  67   1.0000      -0.491677       -13.3792
  68   1.0000      -0.490113       -13.3367
  69   1.0000      -0.487485       -13.2652
  70   1.0000      -0.485967       -13.2238
  71   1.0000      -0.423773       -11.5314
  72   1.0000      -0.420914       -11.4536
  73   1.0000      -0.411931       -11.2092
  74   1.0000      -0.406977       -11.0744
  75   1.0000      -0.376304       -10.2397
  76   1.0000      -0.372986       -10.1495
  77   1.0000      -0.292700        -7.9648
  78   1.0000      -0.292493        -7.9591
  79   1.0000      -0.277860        -7.5609
  80   1.0000      -0.277557        -7.5527
  81   1.0000      -0.260086        -7.0773
  82   1.0000      -0.255165        -6.9434
  83   1.0000      -0.241825        -6.5804
  84   1.0000      -0.239052        -6.5049
  85   1.0000      -0.196169        -5.3380
  86   1.0000      -0.195173        -5.3109
  87   1.0000      -0.192462        -5.2372
  88   1.0000      -0.187766        -5.1094
  89   1.0000      -0.183925        -5.0049
  90   1.0000      -0.183392        -4.9903
  91   1.0000      -0.178749        -4.8640
  92   1.0000      -0.150617        -4.0985
  93   1.0000      -0.149889        -4.0787
  94   1.0000      -0.143948        -3.9170
  95   1.0000      -0.143670        -3.9095
  96   1.0000      -0.141932        -3.8622
  97   1.0000      -0.097669        -2.6577
  98   1.0000      -0.093404        -2.5416
  99   1.0000      -0.087446        -2.3795
 100   1.0000      -0.082802        -2.2531
 101   1.0000      -0.082721        -2.2510
 102   1.0000      -0.072825        -1.9817
 103   1.0000      -0.067375        -1.8334
 104   1.0000      -0.052773        -1.4360
 105   1.0000      -0.039952        -1.0871
 106   1.0000      -0.035747        -0.9727
 107   1.0000      -0.034585        -0.9411
 108   1.0000      -0.028751        -0.7824
 109   1.0000      -0.012677        -0.3449
 110   1.0000      -0.006770        -0.1842
 111   1.0000      -0.003767        -0.1025
 112   1.0000       0.006732         0.1832
 113   1.0000       0.006753         0.1838
 114   1.0000       0.019977         0.5436
 115   1.0000       0.035551         0.9674
 116   1.0000       0.060823         1.6551
 117   0.0000       0.186801         5.0831
 118   0.0000       0.190639         5.1876
 119   0.0000       0.195872         5.3300
 120   0.0000       0.198357         5.3976
 121   0.0000       0.203972         5.5504

                 SPIN DOWN ORBITALS
  NO   OCC          E(Eh)            E(eV)
   0   1.0000    -196.642756     -5350.9214
   1   1.0000     -88.679265     -2413.0855
   2   1.0000     -88.679262     -2413.0854
   3   1.0000     -88.674970     -2412.9686
   4   1.0000     -88.674969     -2412.9686
   5   1.0000     -88.616312     -2411.3724
   6   1.0000     -88.616274     -2411.3714
   7   1.0000     -88.609271     -2411.1808
   8   1.0000     -88.609059     -2411.1751
   9   1.0000     -22.003474      -598.7450
  10   1.0000     -18.857719      -513.1446
  11   1.0000     -18.519719      -503.9472
  12   1.0000     -18.503827      -503.5147
  13   1.0000     -18.503110      -503.4952
  14   1.0000     -10.017475      -272.5894
  15   1.0000     -10.017450      -272.5887
  16   1.0000     -10.014038      -272.4958
  17   1.0000     -10.014023      -272.4954
  18   1.0000     -10.005926      -272.2751
  19   1.0000     -10.005887      -272.2740
  20   1.0000      -9.994718      -271.9701
  21   1.0000      -9.994699      -271.9696
  22   1.0000      -9.988903      -271.8119
  23   1.0000      -9.988737      -271.8074
  24   1.0000      -7.732387      -210.4089
  25   1.0000      -7.732366      -210.4084
  26   1.0000      -7.729030      -210.3176
  27   1.0000      -7.729005      -210.3169
  28   1.0000      -7.671195      -208.7438
  29   1.0000      -7.671130      -208.7421
  30   1.0000      -7.663271      -208.5282
  31   1.0000      -7.663048      -208.5221
  32   1.0000      -5.697614      -155.0400
  33   1.0000      -5.697597      -155.0395
  34   1.0000      -5.694345      -154.9510
  35   1.0000      -5.694329      -154.9506
  36   1.0000      -5.693963      -154.9406
  37   1.0000      -5.693942      -154.9400
  38   1.0000      -5.690169      -154.8374
  39   1.0000      -5.690142      -154.8366
  40   1.0000      -5.687050      -154.7525
  41   1.0000      -5.687033      -154.7520
  42   1.0000      -5.683829      -154.6649
  43   1.0000      -5.683803      -154.6642
  44   1.0000      -5.636002      -153.3634
  45   1.0000      -5.635937      -153.3617
  46   1.0000      -5.629776      -153.1940
  47   1.0000      -5.629740      -153.1930
  48   1.0000      -5.629210      -153.1786
  49   1.0000      -5.629144      -153.1768
  50   1.0000      -5.628242      -153.1523
  51   1.0000      -5.628015      -153.1461
  52   1.0000      -5.622118      -152.9856
  53   1.0000      -5.621897      -152.9796
  54   1.0000      -5.621049      -152.9565
  55   1.0000      -5.620825      -152.9504
  56   1.0000      -2.366454       -64.3945
  57   1.0000      -1.430282       -38.9199
  58   1.0000      -1.379803       -37.5463
  59   1.0000      -1.378905       -37.5219
  60   1.0000      -0.643703       -17.5160
  61   1.0000      -0.643508       -17.5107
  62   1.0000      -0.622185       -16.9305
  63   1.0000      -0.596064       -16.2197
  64   1.0000      -0.595661       -16.2088
  65   1.0000      -0.572988       -15.5918
  66   1.0000      -0.572813       -15.5870
  67   1.0000      -0.491777       -13.3819
  68   1.0000      -0.490221       -13.3396
  69   1.0000      -0.487425       -13.2635
  70   1.0000      -0.485928       -13.2228
  71   1.0000      -0.423989       -11.5373
  72   1.0000      -0.421209       -11.4617
  73   1.0000      -0.411977       -11.2105
  74   1.0000      -0.407090       -11.0775
  75   1.0000      -0.376290       -10.2394
  76   1.0000      -0.373049       -10.1512
  77   1.0000      -0.292678        -7.9642
  78   1.0000      -0.292486        -7.9590
  79   1.0000      -0.277838        -7.5604
  80   1.0000      -0.277546        -7.5524
  81   1.0000      -0.259841        -7.0706
  82   1.0000      -0.255112        -6.9419
  83   1.0000      -0.241711        -6.5773
  84   1.0000      -0.238964        -6.5025
  85   1.0000      -0.196057        -5.3350
  86   1.0000      -0.195132        -5.3098
  87   1.0000      -0.191769        -5.2183
  88   1.0000      -0.187715        -5.1080
  89   1.0000      -0.183835        -5.0024
  90   1.0000      -0.183324        -4.9885
  91   1.0000      -0.177116        -4.8196
  92   1.0000      -0.150132        -4.0853
  93   1.0000      -0.149480        -4.0675
  94   1.0000      -0.143689        -3.9100
  95   1.0000      -0.143360        -3.9010
  96   1.0000      -0.141762        -3.8575
  97   1.0000      -0.097045        -2.6407
  98   1.0000      -0.092237        -2.5099
  99   1.0000      -0.087435        -2.3792
 100   1.0000      -0.082886        -2.2554
 101   1.0000      -0.082382        -2.2417
 102   1.0000      -0.075085        -2.0432
 103   1.0000      -0.068364        -1.8603
 104   1.0000      -0.048500        -1.3198
 105   1.0000      -0.040574        -1.1041
 106   1.0000      -0.035052        -0.9538
 107   1.0000      -0.034190        -0.9303
 108   1.0000      -0.028348        -0.7714
 109   1.0000      -0.011808        -0.3213
 110   1.0000      -0.007260        -0.1976
 111   1.0000      -0.002790        -0.0759
 112   1.0000       0.007634         0.2077
 113   1.0000       0.010976         0.2987
 114   1.0000       0.035734         0.9724
 115   1.0000       0.059924         1.6306
 116   0.0000       0.184185         5.0119
 117   0.0000       0.188378         5.1260
 118   0.0000       0.193192         5.2570
 119   0.0000       0.196294         5.3414
 120   0.0000       0.198516         5.4019

MULLIKEN ATOMIC CHARGES AND SPIN POPULATIONS
--------------------------------------------
   0 V :    0.440353    1.210058
   1 S :   -0.256004   -0.019014
   2 S :   -0.256595   -0.018836
   3 S :   -0.248442   -0.029967
   4 S :   -0.249077   -0.029774
   5 O :   -0.510530   -0.148897
   6 C :   -0.127013    0.010975
   7 C :   -0.100394    0.006907
   8 C :   -0.125412    0.011050
   9 C :   -0.101583    0.007068
  10 S :   -0.028668    0.000389
  11 S :   -0.058954   -0.000611
  12 S :   -0.058671   -0.000589
  13 S :   -0.028764    0.000358
  14 C :   -0.313300    0.000181
  15 C :   -0.312815    0.000191
  16 C :   -0.365128    0.000204
  17 C :   -0.365648    0.000260
  18 C :   -0.082843    0.000137
  19 H :    0.141588   -0.000100
  20 H :    0.094098    0.000069
  21 H :    0.042914    0.000037
  22 H :    0.078942    0.000008
  23 H :    0.107091   -0.000047
  24 H :    0.151423   -0.000081
  25 C :   -0.083571    0.000139
  26 H :    0.094159    0.000082
  27 H :    0.142049   -0.000109
  28 H :    0.079199    0.000003
  29 H :    0.042962    0.000038
  30 H :    0.151678   -0.000083
  31 H :    0.106960   -0.000044
Sum of atomic charges         :   -2.0000000

LOEWDIN ATOMIC CHARGES AND SPIN POPULATIONS
-------------------------------------------
   0 V :   -0.234750    1.163950
   1 S :    0.101213   -0.011405
   2 S :    0.100616   -0.011349
   3 S :    0.079145   -0.021752
   4 S :    0.078473   -0.021673
   5 O :   -0.369397   -0.134286
   6 C :   -0.564799    0.013837
   7 C :   -0.538225    0.006258
   8 C :   -0.564276    0.013882
   9 C :   -0.538339    0.006400
  10 S :    0.346040   -0.000992
  11 S :    0.326054   -0.001115
  12 S :    0.326303   -0.001092
  13 S :    0.346102   -0.001011
  14 C :   -0.289013    0.000147
  15 C :   -0.289052    0.000154
  16 C :   -0.297506    0.000095
  17 C :   -0.297516    0.000116
  18 C :   -0.186111   -0.000054
  19 H :    0.063518   -0.000028
  20 H :    0.046020    0.000033
  21 H :    0.046079    0.000014
  22 H :    0.053083    0.000009
  23 H :    0.048289   -0.000023
  24 H :    0.068538   -0.000037
  25 C :   -0.186203   -0.000056
  26 H :    0.046027    0.000040
  27 H :    0.063642   -0.000028
  28 H :    0.053155    0.000008
  29 H :    0.046038    0.000016
  30 H :    0.068594   -0.000036
  31 H :    0.048257   -0.000021

  Mayer bond orders larger than 0.100000
B(  0-V ,  1-S ) :   0.8380 B(  0-V ,  2-S ) :   0.8383 B(  0-V ,  3-S ) :   0.7499
B(  0-V ,  4-S ) :   0.7460 B(  0-V ,  5-O ) :   2.1002 B(  1-S ,  8-C ) :   1.1125
B(  2-S ,  6-C ) :   1.1119 B(  3-S ,  9-C ) :   1.1543 B(  4-S ,  7-C ) :   1.1551
B(  6-C ,  7-C ) :   1.5169 B(  6-C , 10-S ) :   0.9651 B(  7-C , 11-S ) :   0.9415
B(  8-C ,  9-C ) :   1.5176 B(  8-C , 13-S ) :   0.9650 B(  9-C , 12-S ) :   0.9422
B( 10-S , 16-C ) :   1.0311 B( 11-S , 14-C ) :   0.9764 B( 12-S , 15-C ) :   0.9760
B( 13-S , 17-C ) :   1.0308 B( 14-C , 18-C ) :   0.8833 B( 14-C , 23-H ) :   0.9686
B( 14-C , 24-H ) :   0.9730 B( 15-C , 25-C ) :   0.8831 B( 15-C , 30-H ) :   0.9729
B( 15-C , 31-H ) :   0.9686 B( 16-C , 18-C ) :   0.8723 B( 16-C , 19-H ) :   0.9764
B( 16-C , 20-H ) :   0.9718 B( 17-C , 25-C ) :   0.8727 B( 17-C , 26-H ) :   0.9717
B( 17-C , 27-H ) :   0.9762 B( 18-C , 21-H ) :   0.9503 B( 18-C , 22-H ) :   0.9737
B( 25-C , 28-H ) :   0.9738 B( 25-C , 29-H ) :   0.9502

FINAL SINGLE POINT ENERGY     -4592.702413550957

DIPOLE MOMENT
-------------
                                X             Y             Z
Electronic contribution:      4.46336     -11.07673      23.87723
Nuclear contribution   :     -5.16645      12.67459     -26.45001
                        -----------------------------------------
Total Dipole Moment    :     -0.70309       1.59785      -2.57277
                        -----------------------------------------
Magnitude (a.u.)       :      3.10912
Magnitude (Debye)      :      7.90276

Rotational constants in cm-1:     0.012746     0.002548     0.002429
Rotational constants in MHz :   382.114441    76.393183    72.832557

                             ****ORCA TERMINATED NORMALLY****
TOTAL RUN TIME: 0 days 0 hours 27 minutes 32 seconds 773 msec
