                         Program Version 5.0.4 -  RELEASE  -
|  1> ! nofrozencore ReducedPop printbasis
|  2> ! B3LYP TZVP
|  3>
|  4> %basis
|  5> newgto V "CP(PPP)" end
|  6> end
|  7>
|  8> %pal
|  9> nprocs 4
| 10> end
| 11>
| 12> % sym SymThresh 1e-2 end
| 13> * xyz -2 2
| 14> V -0.37748519051910173 1.0494983128612962 0.01348959810558229
| 15> S 1.5583913706320478 0.9749857391674966 -1.4874675262894237
| 16> S -1.5701292464560272 -0.15905865400748814 -1.751376955659105
| 17> S 1.324894739183289 0.8376057580878631 1.7615289808676156
| 18> S -1.815820628440064 -0.26777309159812984 1.4978577066218643
| 19> O -0.912962564062953 2.5535787945823936 0.02986542728187414
| 20> C -2.9734197672739913 -0.8497337700980523 -0.9267678818642958
| 21> C -3.0751362831743427 -0.8962542385681452 0.4279003193131794
| 22> C 2.93417785588442 1.2810510162164055 -0.42172172768832245
| 23> C 2.8392565442178817 1.2249548952357592 0.9328662524327285
| 24> S -4.243605955842585 -1.513826960144409 -2.022635796127982
| 25> S -4.48870981989327 -1.632223328704446 1.2734999057297582
| 26> S 4.248382963596778 1.5009066979722407 2.0229219207840736
| 27> S 4.486248315501785 1.6386939274804233 -1.273467139725709
| 28> C -4.335016751252068 -3.423655352482174 0.8539173324175615
| 29> C 5.335321579551934 0.06676037786564482 1.6473875077615137
| 30> C -4.142564022024787 -3.3339504386431766 -1.7221205455184578
| 31> C 5.512514063011673 0.13153687723838275 -0.9315554189370172
| 32> C -4.898481608278588 -3.8540627292640317 -0.49749538715882496
| 33> H -3.082066926923112 -3.581341661530591 -1.6437664151603268
| 34> H -4.582827290552594 -3.7808440349090184 -2.618573614884498
| 35> H -4.883448847082194 -4.955470773835327 -0.5343433727272019
| 36> H -5.948071080708975 -3.5474307914955654 -0.5621208703497133
| 37> H -4.846653390814404 -3.9532249310575622 1.665382677946775
| 38> H -3.2824554912191966 -3.698035823380681 0.9636774368340855
| 39> C 6.232625332486807 0.15117307539778274 0.4433576259370049
| 40> H 6.405886420843051 0.37118611154084546 -1.595584181050561
| 41> H 4.710181518025964 -0.6520907117196552 -0.7346842652055254
| 42> H 6.844151460327356 1.0543299625793237 0.5467399446907187
| 43> H 6.922688100020425 -0.707741924623357 0.47439706816023886
| 44> H 4.795889620714103 -0.9249492494707702 1.8939614009084762
| 45> H 5.780880870167785 -0.32818943907404 2.6394912605203715
| 46> *
| 47>
| 48> % eprnmr
| 49> gtensor true
| 50> Nuclei = all H {aiso,adip,aorb,fgrad,rho}
| 51> Nuclei = all V {aiso,adip,aorb,fgrad,rho}
| 52> end
| 53>
| 54>                          ****END OF INPUT****

CARTESIAN COORDINATES (ANGSTROEM)
---------------------------------
  V     -0.377962    1.050585    0.013491
  S      1.557915    0.976073   -1.487466
  S     -1.570606   -0.157972   -1.751376
  S      1.324418    0.838693    1.761530
  S     -1.816297   -0.266686    1.497859
  O     -0.913439    2.554666    0.029867
  C     -2.973896   -0.848647   -0.926767
  C     -3.075613   -0.895167    0.427902
  C      2.933701    1.282138   -0.421720
  C      2.838780    1.226042    0.932868
  S     -4.244082   -1.512740   -2.022634
  S     -4.489186   -1.631136    1.273501
  S      4.247906    1.501994    2.022923
  S      4.485772    1.639781   -1.273466
  C     -4.335493   -3.422568    0.853919
  C      5.334845    0.067847    1.647389
  C     -4.143041   -3.332863   -1.722119
  C      5.512038    0.132624   -0.931554
  C     -4.898958   -3.852976   -0.497494
  H     -3.082543   -3.580255   -1.643765
  H     -4.583304   -3.779757   -2.618572
  H     -4.883925   -4.954384   -0.534342
  H     -5.948548   -3.546344   -0.562120
  H     -4.847130   -3.952138    1.665384
  H     -3.282932   -3.696949    0.963679
  C      6.232149    0.152260    0.443359
  H      6.405410    0.372273   -1.595583
  H      4.709705   -0.651004   -0.734683
  H      6.843675    1.055417    0.546741
  H      6.922212   -0.706655    0.474398
  H      4.795413   -0.923862    1.893963
  H      5.780404   -0.327102    2.639493

 Total Charge           Charge          ....   -2
 Multiplicity           Mult            ....    2
 Number of Electrons    NEL             ....  233
 Basis Dimension        Dim             ....  517

ORBITAL ENERGIES
----------------
                 SPIN UP ORBITALS
  NO   OCC          E(Eh)            E(eV)
   0   1.0000    -196.640491     -5350.8598
   1   1.0000     -88.680906     -2413.1301
   2   1.0000     -88.676982     -2413.0233
   3   1.0000     -88.676369     -2413.0067
   4   1.0000     -88.675000     -2412.9694
   5   1.0000     -88.612930     -2411.2804
   6   1.0000     -88.612222     -2411.2611
   7   1.0000     -88.612197     -2411.2605
   8   1.0000     -88.612174     -2411.2598
   9   1.0000     -22.016277      -599.0934
  10   1.0000     -18.857556      -513.1402
  11   1.0000     -18.523104      -504.0393
  12   1.0000     -18.517325      -503.8820
  13   1.0000     -18.517289      -503.8811
  14   1.0000     -10.028606      -272.8922
  15   1.0000     -10.024297      -272.7750
  16   1.0000     -10.015829      -272.5446
  17   1.0000     -10.015374      -272.5322
  18   1.0000     -10.006700      -272.2961
  19   1.0000     -10.004802      -272.2445
  20   1.0000      -9.992440      -271.9081
  21   1.0000      -9.992013      -271.8965
  22   1.0000      -9.991494      -271.8824
  23   1.0000      -9.991278      -271.8765
  24   1.0000      -7.734079      -210.4550
  25   1.0000      -7.730589      -210.3600
  26   1.0000      -7.730045      -210.3452
  27   1.0000      -7.728804      -210.3115
  28   1.0000      -7.667351      -208.6392
  29   1.0000      -7.666673      -208.6208
  30   1.0000      -7.666642      -208.6199
  31   1.0000      -7.666599      -208.6188
  32   1.0000      -5.699400      -155.0885
  33   1.0000      -5.695842      -154.9917
  34   1.0000      -5.695429      -154.9805
  35   1.0000      -5.695281      -154.9765
  36   1.0000      -5.693985      -154.9412
  37   1.0000      -5.691945      -154.8857
  38   1.0000      -5.691398      -154.8708
  39   1.0000      -5.690138      -154.8365
  40   1.0000      -5.688849      -154.8014
  41   1.0000      -5.685339      -154.7059
  42   1.0000      -5.684797      -154.6912
  43   1.0000      -5.683598      -154.6586
  44   1.0000      -5.632210      -153.2602
  45   1.0000      -5.631500      -153.2409
  46   1.0000      -5.631488      -153.2406
  47   1.0000      -5.631441      -153.2393
  48   1.0000      -5.625769      -153.0849
  49   1.0000      -5.625341      -153.0733
  50   1.0000      -5.625096      -153.0667
  51   1.0000      -5.625083      -153.0663
  52   1.0000      -5.625047      -153.0653
  53   1.0000      -5.624655      -153.0547
  54   1.0000      -5.624631      -153.0540
  55   1.0000      -5.624583      -153.0527
  56   1.0000      -2.409969       -65.5786
  57   1.0000      -1.451331       -39.4927
  58   1.0000      -1.439746       -39.1775
  59   1.0000      -1.438669       -39.1482
  60   1.0000      -0.644557       -17.5393
  61   1.0000      -0.643914       -17.5218
  62   1.0000      -0.618583       -16.8325
  63   1.0000      -0.594553       -16.1786
  64   1.0000      -0.593768       -16.1572
  65   1.0000      -0.575917       -15.6715
  66   1.0000      -0.575290       -15.6544
  67   1.0000      -0.492236       -13.3944
  68   1.0000      -0.490177       -13.3384
  69   1.0000      -0.487623       -13.2689
  70   1.0000      -0.486377       -13.2350
  71   1.0000      -0.424884       -11.5617
  72   1.0000      -0.421282       -11.4637
  73   1.0000      -0.412088       -11.2135
  74   1.0000      -0.406712       -11.0672
  75   1.0000      -0.376515       -10.2455
  76   1.0000      -0.373456       -10.1623
  77   1.0000      -0.309584        -8.4242
  78   1.0000      -0.293251        -7.9798
  79   1.0000      -0.285037        -7.7562
  80   1.0000      -0.277971        -7.5640
  81   1.0000      -0.259181        -7.0527
  82   1.0000      -0.250863        -6.8263
  83   1.0000      -0.240447        -6.5429
  84   1.0000      -0.219436        -5.9711
  85   1.0000      -0.207981        -5.6594
  86   1.0000      -0.195093        -5.3088
  87   1.0000      -0.192288        -5.2324
  88   1.0000      -0.186905        -5.0859
  89   1.0000      -0.184361        -5.0167
  90   1.0000      -0.178917        -4.8686
  91   1.0000      -0.166361        -4.5269
  92   1.0000      -0.151188        -4.1140
  93   1.0000      -0.148393        -4.0380
  94   1.0000      -0.142836        -3.8868
  95   1.0000      -0.139948        -3.8082
  96   1.0000      -0.124057        -3.3758
  97   1.0000      -0.097674        -2.6579
  98   1.0000      -0.093855        -2.5539
  99   1.0000      -0.089796        -2.4435
 100   1.0000      -0.083812        -2.2806
 101   1.0000      -0.080602        -2.1933
 102   1.0000      -0.079445        -2.1618
 103   1.0000      -0.070161        -1.9092
 104   1.0000      -0.050447        -1.3727
 105   1.0000      -0.039932        -1.0866
 106   1.0000      -0.037476        -1.0198
 107   1.0000      -0.036194        -0.9849
 108   1.0000      -0.031792        -0.8651
 109   1.0000      -0.013444        -0.3658
 110   1.0000      -0.004707        -0.1281
 111   1.0000      -0.003692        -0.1005
 112   1.0000       0.005848         0.1591
 113   1.0000       0.010222         0.2781
 114   1.0000       0.015911         0.4329
 115   1.0000       0.033075         0.9000
 116   1.0000       0.059274         1.6129
 117   0.0000       0.185931         5.0594
 118   0.0000       0.188683         5.1343
 119   0.0000       0.193372         5.2619
 120   0.0000       0.196351         5.3430
 121   0.0000       0.210445         5.7265

                 SPIN DOWN ORBITALS
  NO   OCC          E(Eh)            E(eV)
   0   1.0000    -196.640632     -5350.8636
   1   1.0000     -88.680919     -2413.1305
   2   1.0000     -88.676995     -2413.0237
   3   1.0000     -88.676382     -2413.0070
   4   1.0000     -88.675013     -2412.9698
   5   1.0000     -88.613089     -2411.2847
   6   1.0000     -88.612382     -2411.2655
   7   1.0000     -88.612356     -2411.2648
   8   1.0000     -88.612334     -2411.2642
   9   1.0000     -22.001609      -598.6942
  10   1.0000     -18.861130      -513.2374
  11   1.0000     -18.517975      -503.8997
  12   1.0000     -18.501834      -503.4605
  13   1.0000     -18.501156      -503.4420
  14   1.0000     -10.028602      -272.8921
  15   1.0000     -10.024293      -272.7749
  16   1.0000     -10.015826      -272.5445
  17   1.0000     -10.015370      -272.5321
  18   1.0000     -10.006700      -272.2961
  19   1.0000     -10.004802      -272.2445
  20   1.0000      -9.992185      -271.9012
  21   1.0000      -9.991759      -271.8896
  22   1.0000      -9.991242      -271.8755
  23   1.0000      -9.991025      -271.8696
  24   1.0000      -7.734092      -210.4554
  25   1.0000      -7.730603      -210.3604
  26   1.0000      -7.730059      -210.3456
  27   1.0000      -7.728818      -210.3118
  28   1.0000      -7.667499      -208.6432
  29   1.0000      -7.666821      -208.6248
  30   1.0000      -7.666791      -208.6240
  31   1.0000      -7.666748      -208.6228
  32   1.0000      -5.699416      -155.0890
  33   1.0000      -5.695858      -154.9922
  34   1.0000      -5.695450      -154.9811
  35   1.0000      -5.695298      -154.9769
  36   1.0000      -5.694003      -154.9417
  37   1.0000      -5.691965      -154.8863
  38   1.0000      -5.691418      -154.8714
  39   1.0000      -5.690158      -154.8371
  40   1.0000      -5.688866      -154.8019
  41   1.0000      -5.685356      -154.7064
  42   1.0000      -5.684814      -154.6916
  43   1.0000      -5.683614      -154.6590
  44   1.0000      -5.632381      -153.2649
  45   1.0000      -5.631671      -153.2456
  46   1.0000      -5.631660      -153.2453
  47   1.0000      -5.631613      -153.2440
  48   1.0000      -5.626158      -153.0956
  49   1.0000      -5.625488      -153.0773
  50   1.0000      -5.625476      -153.0770
  51   1.0000      -5.625473      -153.0769
  52   1.0000      -5.625438      -153.0759
  53   1.0000      -5.624790      -153.0583
  54   1.0000      -5.624766      -153.0577
  55   1.0000      -5.624719      -153.0564
  56   1.0000      -2.365790       -64.3764
  57   1.0000      -1.432510       -38.9806
  58   1.0000      -1.378339       -37.5065
  59   1.0000      -1.377693       -37.4889
  60   1.0000      -0.644506       -17.5379
  61   1.0000      -0.643864       -17.5204
  62   1.0000      -0.626239       -17.0408
  63   1.0000      -0.594362       -16.1734
  64   1.0000      -0.593564       -16.1517
  65   1.0000      -0.575912       -15.6714
  66   1.0000      -0.575283       -15.6543
  67   1.0000      -0.492259       -13.3950
  68   1.0000      -0.490213       -13.3394
  69   1.0000      -0.487628       -13.2690
  70   1.0000      -0.486399       -13.2356
  71   1.0000      -0.425110       -11.5678
  72   1.0000      -0.421576       -11.4717
  73   1.0000      -0.412113       -11.2142
  74   1.0000      -0.406822       -11.0702
  75   1.0000      -0.376472       -10.2443
  76   1.0000      -0.373483       -10.1630
  77   1.0000      -0.309580        -8.4241
  78   1.0000      -0.293234        -7.9793
  79   1.0000      -0.285009        -7.7555
  80   1.0000      -0.277952        -7.5634
  81   1.0000      -0.258994        -7.0476
  82   1.0000      -0.250723        -6.8225
  83   1.0000      -0.240364        -6.5406
  84   1.0000      -0.219406        -5.9703
  85   1.0000      -0.207957        -5.6588
  86   1.0000      -0.194819        -5.3013
  87   1.0000      -0.192071        -5.2265
  88   1.0000      -0.186255        -5.0683
  89   1.0000      -0.184312        -5.0154
  90   1.0000      -0.177405        -4.8274
  91   1.0000      -0.166231        -4.5234
  92   1.0000      -0.150525        -4.0960
  93   1.0000      -0.148077        -4.0294
  94   1.0000      -0.142637        -3.8813
  95   1.0000      -0.139717        -3.8019
  96   1.0000      -0.123864        -3.3705
  97   1.0000      -0.096145        -2.6162
  98   1.0000      -0.093393        -2.5414
  99   1.0000      -0.089934        -2.4472
 100   1.0000      -0.083782        -2.2798
 101   1.0000      -0.082429        -2.2430
 102   1.0000      -0.079091        -2.1522
 103   1.0000      -0.071447        -1.9442
 104   1.0000      -0.046405        -1.2627
 105   1.0000      -0.039762        -1.0820
 106   1.0000      -0.037011        -1.0071
 107   1.0000      -0.035233        -0.9587
 108   1.0000      -0.031665        -0.8617
 109   1.0000      -0.012534        -0.3411
 110   1.0000      -0.006039        -0.1643
 111   1.0000      -0.002706        -0.0736
 112   1.0000       0.006698         0.1823
 113   1.0000       0.011118         0.3025
 114   1.0000       0.033332         0.9070
 115   1.0000       0.058482         1.5914
 116   0.0000       0.184790         5.0284
 117   0.0000       0.186899         5.0858
 118   0.0000       0.188829         5.1383
 119   0.0000       0.194110         5.2820
 120   0.0000       0.196538         5.3481

MULLIKEN ATOMIC CHARGES AND SPIN POPULATIONS
--------------------------------------------
   0 V :    0.447466    1.199157
   1 S :   -0.252331   -0.024213
   2 S :   -0.253047   -0.024156
   3 S :   -0.255794   -0.024022
   4 S :   -0.255015   -0.024037
   5 O :   -0.506215   -0.138752
   6 C :   -0.117500    0.008850
   7 C :   -0.114679    0.008860
   8 C :   -0.127657    0.008950
   9 C :   -0.101439    0.008900
  10 S :   -0.045070   -0.000169
  11 S :   -0.043968   -0.000194
  12 S :   -0.010787   -0.000152
  13 S :   -0.043252   -0.000207
  14 C :   -0.340302    0.000284
  15 C :   -0.367315    0.000211
  16 C :   -0.337413    0.000273
  17 C :   -0.326308    0.000312
  18 C :   -0.083483    0.000135
  19 H :    0.148482   -0.000104
  20 H :    0.102260    0.000021
  21 H :    0.044431    0.000038
  22 H :    0.078533    0.000018
  23 H :    0.101480    0.000022
  24 H :    0.145863   -0.000101
  25 C :   -0.074891    0.000194
  26 H :    0.090277    0.000035
  27 H :    0.181935   -0.000149
  28 H :    0.079820    0.000003
  29 H :    0.043417    0.000043
  30 H :    0.111138   -0.000114
  31 H :    0.081367    0.000064
Sum of atomic charges         :   -2.0000000

LOEWDIN ATOMIC CHARGES AND SPIN POPULATIONS
-------------------------------------------
   0 V :   -0.242877    1.153165
   1 S :    0.090480   -0.016430
   2 S :    0.088679   -0.016373
   3 S :    0.087606   -0.016201
   4 S :    0.087396   -0.016296
   5 O :   -0.350794   -0.124199
   6 C :   -0.553519    0.009985
   7 C :   -0.552434    0.009951
   8 C :   -0.558341    0.009926
   9 C :   -0.551617    0.010047
  10 S :    0.336075   -0.001029
  11 S :    0.337502   -0.001040
  12 S :    0.350179   -0.001000
  13 S :    0.330043   -0.001052
  14 C :   -0.296093    0.000164
  15 C :   -0.350807    0.000166
  16 C :   -0.291834    0.000156
  17 C :   -0.305246    0.000177
  18 C :   -0.184860   -0.000036
  19 H :    0.067017   -0.000026
  20 H :    0.047614    0.000003
  21 H :    0.046791    0.000017
  22 H :    0.053382    0.000013
  23 H :    0.047266    0.000006
  24 H :    0.065177   -0.000028
  25 C :   -0.192721   -0.000037
  26 H :    0.064921   -0.000002
  27 H :    0.096669   -0.000032
  28 H :    0.051671    0.000011
  29 H :    0.048365    0.000019
  30 H :    0.072355   -0.000051
  31 H :    0.061955    0.000026

  Mayer bond orders larger than 0.100000
B(  0-V ,  1-S ) :   0.7897 B(  0-V ,  2-S ) :   0.7917 B(  0-V ,  3-S ) :   0.7867
B(  0-V ,  4-S ) :   0.7881 B(  0-V ,  5-O ) :   2.1085 B(  1-S ,  8-C ) :   1.1383
B(  2-S ,  6-C ) :   1.1375 B(  3-S ,  9-C ) :   1.1339 B(  4-S ,  7-C ) :   1.1368
B(  6-C ,  7-C ) :   1.5174 B(  6-C , 10-S ) :   0.9534 B(  7-C , 11-S ) :   0.9542
B(  8-C ,  9-C ) :   1.4943 B(  8-C , 13-S ) :   0.9545 B(  9-C , 12-S ) :   0.9548
B( 10-S , 16-C ) :   1.0069 B( 11-S , 14-C ) :   1.0040 B( 12-S , 15-C ) :   1.0512
B( 13-S , 17-C ) :   1.0194 B( 14-C , 18-C ) :   0.8807 B( 14-C , 23-H ) :   0.9698
B( 14-C , 24-H ) :   0.9745 B( 15-C , 25-C ) :   0.9204 B( 15-C , 30-H ) :   0.9346
B( 15-C , 31-H ) :   0.9468 B( 16-C , 18-C ) :   0.8756 B( 16-C , 19-H ) :   0.9757
B( 16-C , 20-H ) :   0.9701 B( 17-C , 25-C ) :   0.8672 B( 17-C , 26-H ) :   0.9601
B( 17-C , 27-H ) :   0.9654 B( 18-C , 21-H ) :   0.9525 B( 18-C , 22-H ) :   0.9738
B( 25-C , 28-H ) :   0.9763 B( 25-C , 29-H ) :   0.9489

FINAL SINGLE POINT ENERGY     -4592.661104265153

DIPOLE MOMENT
-------------
                                X             Y             Z
Electronic contribution:     -9.07309      25.16020      -0.32256
Nuclear contribution   :     10.03124     -28.02411       0.40148
                        -----------------------------------------
Total Dipole Moment    :      0.95815      -2.86392       0.07892
                        -----------------------------------------
Magnitude (a.u.)       :      3.02098
Magnitude (Debye)      :      7.67872

Rotational constants in cm-1:     0.012769     0.002548     0.002431
Rotational constants in MHz :   382.794245    76.396285    72.880688

                             ****ORCA TERMINATED NORMALLY****
TOTAL RUN TIME: 0 days 0 hours 43 minutes 14 seconds 917 msec
