                         Program Version 5.0.4 -  RELEASE  -
|  1> ! nofrozencore ReducedPop printbasis
|  2> ! B3LYP TZVP
|  3>
|  4> %basis
|  5> newgto V "CP(PPP)" end
|  6> end
|  7>
|  8> %pal
|  9> nprocs 8
| 10> end
| 11>
| 12> % sym SymThresh 1e-2 end
| 13> * xyz -2 2
| 14> V -0.6998010637085356 0.21759129377769731 0.8300462915461704
| 15> S 1.3772027221382521 1.3588500158601151 1.31104944073744
| 16> S -0.9296548210786739 1.9782009259264124 -0.7838877707159766
| 17> S 0.46849672230969397 -1.8295747141130998 1.3653637863269423
| 18> S -1.8634542302379598 -1.215230124635149 -0.7072027144464971
| 19> O -1.6916996173590453 0.5296806487677036 2.0401943833192178
| 20> C -2.175618244011036 1.3003502734935914 -1.960346762982631
| 21> C -2.561582630855326 -0.02634109720310248 -1.9294278459116956
| 22> C 2.364660070871067 0.0842394559212805 2.1701212313463336
| 23> C 1.9874665023480294 -1.2405123399858264 2.19297524980593
| 24> S -2.973834270863451 2.5697140658759783 -3.1495688771490937
| 25> S -3.9276055080101435 -0.7188785966627615 -3.0769171651181257
| 26> S 2.962828403019286 -2.554974984749614 3.142175546739376
| 27> S 3.8945886377500716 0.7164230466716475 3.0872661920033324
| 28> C -2.9962948689316673 -0.5735394401492038 -4.6794102724596724
| 29> C 4.491754836549399 -2.5743817835220066 2.0911887854581988
| 30> C -2.2844492880715666 1.8867687746429833 -4.735160399787164
| 31> C 5.195723480764257 -0.1047865495162144 2.050760891558409
| 32> C -3.0916219421815074 0.7713791420958338 -5.405680757641755
| 33> H -1.2821357829213158 1.5101034112791962 -4.473318414848833
| 34> H -2.1539735898697154 2.736918314050321 -5.431249305086788
| 35> H -2.678457960578868 0.6289886499793164 -6.4177231744910035
| 36> H -4.137795949101422 1.071406826879776 -5.5264406085042
| 37> H -3.345059469360598 -1.3906106754112104 -5.3390264616796355
| 38> H -1.9448430411164994 -0.77783381096232 -4.418952455782542
| 39> C 5.566052396837082 -1.5395457248288769 2.4340433082858866
| 40> H 6.088768263489512 0.539814205183597 2.091085509493791
| 41> H 4.8108574538419155 -0.07897932529363003 1.0222982953883122
| 42> H 5.820338542614754 -1.594728726038593 3.4977875627028134
| 43> H 6.475308648664303 -1.8077721104042588 1.871691904667757
| 44> H 4.141168094943298 -2.422963766150412 1.0612653529918465
| 45> H 4.911413427205505 -3.5913710553949745 2.1568821069895465
| 46> *
| 47>
| 48> % eprnmr
| 49> gtensor true
| 50> Nuclei = all H {aiso,adip,aorb,fgrad,rho}
| 51> Nuclei = all V {aiso,adip,aorb,fgrad,rho}
| 52> end
| 53>
| 54>                          ****END OF INPUT****

CARTESIAN COORDINATES (ANGSTROEM)
---------------------------------
  V     -0.700602    0.217845    0.830884
  S      1.376401    1.359103    1.311887
  S     -0.930456    1.978454   -0.783050
  S      0.467695   -1.829321    1.366202
  S     -1.864256   -1.214977   -0.706365
  O     -1.692501    0.529934    2.041032
  C     -2.176420    1.300603   -1.959509
  C     -2.562384   -0.026088   -1.928590
  C      2.363859    0.084493    2.170959
  C      1.986665   -1.240259    2.193813
  S     -2.974636    2.569967   -3.148731
  S     -3.928407   -0.718625   -3.076079
  S      2.962027   -2.554722    3.143014
  S      3.893787    0.716676    3.088104
  C     -2.997096   -0.573286   -4.678572
  C      4.490954   -2.574129    2.092027
  C     -2.285251    1.887022   -4.734322
  C      5.194922   -0.104533    2.051599
  C     -3.092423    0.771632   -5.404843
  H     -1.282937    1.510357   -4.472480
  H     -2.154775    2.737172   -5.430411
  H     -2.679259    0.629242   -6.416885
  H     -4.138597    1.071660   -5.525603
  H     -3.345861   -1.390357   -5.338188
  H     -1.945644   -0.777581   -4.418114
  C      5.565251   -1.539293    2.434881
  H      6.087967    0.540067    2.091924
  H      4.810056   -0.078726    1.023136
  H      5.819537   -1.594476    3.498626
  H      6.474507   -1.807519    1.872530
  H      4.140367   -2.422711    1.062103
  H      4.910612   -3.591118    2.157720

 Total Charge           Charge          ....   -2
 Multiplicity           Mult            ....    2
 Number of Electrons    NEL             ....  233
 Basis Dimension        Dim             ....  517

ORBITAL ENERGIES
----------------
                 SPIN UP ORBITALS
  NO   OCC          E(Eh)            E(eV)
   0   1.0000    -196.636548     -5350.7525
   1   1.0000     -88.683887     -2413.2113
   2   1.0000     -88.683880     -2413.2111
   3   1.0000     -88.681988     -2413.1596
   4   1.0000     -88.681941     -2413.1583
   5   1.0000     -88.617645     -2411.4087
   6   1.0000     -88.617603     -2411.4076
   7   1.0000     -88.615791     -2411.3583
   8   1.0000     -88.615729     -2411.3566
   9   1.0000     -22.013058      -599.0058
  10   1.0000     -18.854979      -513.0701
  11   1.0000     -18.519744      -503.9478
  12   1.0000     -18.514148      -503.7956
  13   1.0000     -18.514090      -503.7940
  14   1.0000     -10.019425      -272.6424
  15   1.0000     -10.019400      -272.6417
  16   1.0000     -10.017787      -272.5978
  17   1.0000     -10.017772      -272.5974
  18   1.0000     -10.007829      -272.3269
  19   1.0000     -10.007215      -272.3102
  20   1.0000     -10.006684      -272.2957
  21   1.0000     -10.005788      -272.2713
  22   1.0000     -10.004046      -272.2239
  23   1.0000     -10.003418      -272.2068
  24   1.0000      -7.735636      -210.4974
  25   1.0000      -7.735628      -210.4971
  26   1.0000      -7.734079      -210.4550
  27   1.0000      -7.734044      -210.4540
  28   1.0000      -7.670754      -208.7318
  29   1.0000      -7.670713      -208.7307
  30   1.0000      -7.669062      -208.6858
  31   1.0000      -7.669013      -208.6845
  32   1.0000      -5.700831      -155.1275
  33   1.0000      -5.700827      -155.1274
  34   1.0000      -5.699293      -155.0857
  35   1.0000      -5.699253      -155.0846
  36   1.0000      -5.697547      -155.0381
  37   1.0000      -5.697540      -155.0379
  38   1.0000      -5.695881      -154.9928
  39   1.0000      -5.695845      -154.9918
  40   1.0000      -5.690260      -154.8398
  41   1.0000      -5.690253      -154.8397
  42   1.0000      -5.688727      -154.7981
  43   1.0000      -5.688695      -154.7973
  44   1.0000      -5.636278      -153.3709
  45   1.0000      -5.636235      -153.3697
  46   1.0000      -5.634451      -153.3212
  47   1.0000      -5.634407      -153.3200
  48   1.0000      -5.629097      -153.1755
  49   1.0000      -5.629049      -153.1742
  50   1.0000      -5.628380      -153.1560
  51   1.0000      -5.628342      -153.1550
  52   1.0000      -5.627464      -153.1311
  53   1.0000      -5.627411      -153.1296
  54   1.0000      -5.626761      -153.1119
  55   1.0000      -5.626710      -153.1106
  56   1.0000      -2.407378       -65.5081
  57   1.0000      -1.448758       -39.4227
  58   1.0000      -1.437716       -39.1223
  59   1.0000      -1.436409       -39.0867
  60   1.0000      -0.638836       -17.3836
  61   1.0000      -0.638283       -17.3686
  62   1.0000      -0.616352       -16.7718
  63   1.0000      -0.578727       -15.7480
  64   1.0000      -0.575899       -15.6710
  65   1.0000      -0.569265       -15.4905
  66   1.0000      -0.567887       -15.4530
  67   1.0000      -0.488565       -13.2945
  68   1.0000      -0.486306       -13.2331
  69   1.0000      -0.472308       -12.8521
  70   1.0000      -0.468576       -12.7506
  71   1.0000      -0.421921       -11.4811
  72   1.0000      -0.417650       -11.3648
  73   1.0000      -0.410024       -11.1573
  74   1.0000      -0.401754       -10.9323
  75   1.0000      -0.381010       -10.3678
  76   1.0000      -0.376169       -10.2361
  77   1.0000      -0.289927        -7.8893
  78   1.0000      -0.289524        -7.8783
  79   1.0000      -0.274979        -7.4826
  80   1.0000      -0.274587        -7.4719
  81   1.0000      -0.258660        -7.0385
  82   1.0000      -0.252467        -6.8700
  83   1.0000      -0.237328        -6.4580
  84   1.0000      -0.231960        -6.3119
  85   1.0000      -0.193383        -5.2622
  86   1.0000      -0.192872        -5.2483
  87   1.0000      -0.192054        -5.2261
  88   1.0000      -0.192005        -5.2247
  89   1.0000      -0.182180        -4.9574
  90   1.0000      -0.177043        -4.8176
  91   1.0000      -0.174684        -4.7534
  92   1.0000      -0.150985        -4.1085
  93   1.0000      -0.144913        -3.9433
  94   1.0000      -0.142282        -3.8717
  95   1.0000      -0.136818        -3.7230
  96   1.0000      -0.133844        -3.6421
  97   1.0000      -0.097377        -2.6498
  98   1.0000      -0.094142        -2.5617
  99   1.0000      -0.089466        -2.4345
 100   1.0000      -0.084097        -2.2884
 101   1.0000      -0.080727        -2.1967
 102   1.0000      -0.075515        -2.0549
 103   1.0000      -0.069712        -1.8969
 104   1.0000      -0.050998        -1.3877
 105   1.0000      -0.040726        -1.1082
 106   1.0000      -0.038717        -1.0535
 107   1.0000      -0.036185        -0.9847
 108   1.0000      -0.029706        -0.8083
 109   1.0000      -0.015241        -0.4147
 110   1.0000      -0.009913        -0.2697
 111   1.0000      -0.004676        -0.1272
 112   1.0000       0.002186         0.0595
 113   1.0000       0.008963         0.2439
 114   1.0000       0.017448         0.4748
 115   1.0000       0.026053         0.7089
 116   1.0000       0.056501         1.5375
 117   0.0000       0.187124         5.0919
 118   0.0000       0.191333         5.2064
 119   0.0000       0.192083         5.2268
 120   0.0000       0.193681         5.2703
 121   0.0000       0.206735         5.6255

                 SPIN DOWN ORBITALS
  NO   OCC          E(Eh)            E(eV)
   0   1.0000    -196.636690     -5350.7564
   1   1.0000     -88.683895     -2413.2115
   2   1.0000     -88.683888     -2413.2113
   3   1.0000     -88.681998     -2413.1599
   4   1.0000     -88.681950     -2413.1586
   5   1.0000     -88.617804     -2411.4130
   6   1.0000     -88.617761     -2411.4119
   7   1.0000     -88.615949     -2411.3626
   8   1.0000     -88.615886     -2411.3609
   9   1.0000     -21.998733      -598.6160
  10   1.0000     -18.858459      -513.1648
  11   1.0000     -18.514772      -503.8126
  12   1.0000     -18.498859      -503.3795
  13   1.0000     -18.498460      -503.3687
  14   1.0000     -10.019420      -272.6423
  15   1.0000     -10.019396      -272.6416
  16   1.0000     -10.017782      -272.5977
  17   1.0000     -10.017768      -272.5973
  18   1.0000     -10.007460      -272.3168
  19   1.0000     -10.006849      -272.3002
  20   1.0000     -10.006682      -272.2957
  21   1.0000     -10.005787      -272.2713
  22   1.0000     -10.003719      -272.2150
  23   1.0000     -10.003094      -272.1980
  24   1.0000      -7.735644      -210.4976
  25   1.0000      -7.735636      -210.4974
  26   1.0000      -7.734089      -210.4553
  27   1.0000      -7.734054      -210.4543
  28   1.0000      -7.670899      -208.7358
  29   1.0000      -7.670857      -208.7346
  30   1.0000      -7.669207      -208.6897
  31   1.0000      -7.669158      -208.6884
  32   1.0000      -5.700845      -155.1279
  33   1.0000      -5.700841      -155.1278
  34   1.0000      -5.699309      -155.0861
  35   1.0000      -5.699268      -155.0850
  36   1.0000      -5.697562      -155.0386
  37   1.0000      -5.697556      -155.0384
  38   1.0000      -5.695898      -154.9933
  39   1.0000      -5.695862      -154.9923
  40   1.0000      -5.690264      -154.8399
  41   1.0000      -5.690257      -154.8398
  42   1.0000      -5.688734      -154.7983
  43   1.0000      -5.688703      -154.7975
  44   1.0000      -5.636473      -153.3762
  45   1.0000      -5.636429      -153.3750
  46   1.0000      -5.634635      -153.3262
  47   1.0000      -5.634591      -153.3250
  48   1.0000      -5.629472      -153.1857
  49   1.0000      -5.629423      -153.1844
  50   1.0000      -5.628509      -153.1595
  51   1.0000      -5.628472      -153.1585
  52   1.0000      -5.627843      -153.1414
  53   1.0000      -5.627790      -153.1399
  54   1.0000      -5.626888      -153.1154
  55   1.0000      -5.626838      -153.1140
  56   1.0000      -2.364147       -64.3317
  57   1.0000      -1.430514       -38.9263
  58   1.0000      -1.377300       -37.4782
  59   1.0000      -1.376902       -37.4674
  60   1.0000      -0.638794       -17.3825
  61   1.0000      -0.638238       -17.3673
  62   1.0000      -0.623800       -16.9745
  63   1.0000      -0.578388       -15.7387
  64   1.0000      -0.575493       -15.6600
  65   1.0000      -0.569248       -15.4900
  66   1.0000      -0.567862       -15.4523
  67   1.0000      -0.488517       -13.2932
  68   1.0000      -0.486260       -13.2318
  69   1.0000      -0.472258       -12.8508
  70   1.0000      -0.468510       -12.7488
  71   1.0000      -0.422097       -11.4859
  72   1.0000      -0.417909       -11.3719
  73   1.0000      -0.409946       -11.1552
  74   1.0000      -0.401810       -10.9338
  75   1.0000      -0.380928       -10.3656
  76   1.0000      -0.376166       -10.2360
  77   1.0000      -0.289895        -7.8885
  78   1.0000      -0.289510        -7.8780
  79   1.0000      -0.274946        -7.4817
  80   1.0000      -0.274549        -7.4709
  81   1.0000      -0.258279        -7.0281
  82   1.0000      -0.252345        -6.8667
  83   1.0000      -0.237113        -6.4522
  84   1.0000      -0.231733        -6.3058
  85   1.0000      -0.193185        -5.2568
  86   1.0000      -0.192832        -5.2472
  87   1.0000      -0.191992        -5.2244
  88   1.0000      -0.191962        -5.2235
  89   1.0000      -0.180585        -4.9140
  90   1.0000      -0.176729        -4.8090
  91   1.0000      -0.173141        -4.7114
  92   1.0000      -0.150708        -4.1010
  93   1.0000      -0.144689        -3.9372
  94   1.0000      -0.141449        -3.8490
  95   1.0000      -0.136465        -3.7134
  96   1.0000      -0.133565        -3.6345
  97   1.0000      -0.095509        -2.5989
  98   1.0000      -0.093638        -2.5480
  99   1.0000      -0.089451        -2.4341
 100   1.0000      -0.083954        -2.2845
 101   1.0000      -0.082139        -2.2351
 102   1.0000      -0.074916        -2.0386
 103   1.0000      -0.070623        -1.9217
 104   1.0000      -0.047636        -1.2963
 105   1.0000      -0.039874        -1.0850
 106   1.0000      -0.038912        -1.0589
 107   1.0000      -0.035012        -0.9527
 108   1.0000      -0.029565        -0.8045
 109   1.0000      -0.014167        -0.3855
 110   1.0000      -0.008409        -0.2288
 111   1.0000      -0.006265        -0.1705
 112   1.0000       0.003048         0.0829
 113   1.0000       0.009068         0.2467
 114   1.0000       0.026338         0.7167
 115   1.0000       0.055736         1.5167
 116   0.0000       0.178690         4.8624
 117   0.0000       0.187725         5.1083
 118   0.0000       0.192000         5.2246
 119   0.0000       0.192838         5.2474
 120   0.0000       0.194102         5.2818

MULLIKEN ATOMIC CHARGES AND SPIN POPULATIONS
--------------------------------------------
   0 V :    0.445818    1.183602
   1 S :   -0.254109   -0.025736
   2 S :   -0.250973   -0.026301
   3 S :   -0.254234   -0.025701
   4 S :   -0.251245   -0.026190
   5 O :   -0.502755   -0.135525
   6 C :   -0.108329    0.014299
   7 C :   -0.107126    0.014293
   8 C :   -0.107811    0.012520
   9 C :   -0.109183    0.012443
  10 S :   -0.065267    0.000204
  11 S :   -0.065314    0.000162
  12 S :   -0.061588   -0.000018
  13 S :   -0.061971   -0.000044
  14 C :   -0.363316    0.000427
  15 C :   -0.360067    0.000385
  16 C :   -0.362480    0.000400
  17 C :   -0.359087    0.000408
  18 C :   -0.059027    0.000113
  19 H :    0.158473   -0.000055
  20 H :    0.107427    0.000050
  21 H :    0.047379    0.000079
  22 H :    0.084449    0.000039
  23 H :    0.107449    0.000053
  24 H :    0.159038   -0.000061
  25 C :   -0.062681    0.000133
  26 H :    0.106642    0.000050
  27 H :    0.156884   -0.000080
  28 H :    0.082846    0.000019
  29 H :    0.046315    0.000059
  30 H :    0.157130   -0.000075
  31 H :    0.106714    0.000046
Sum of atomic charges         :   -2.0000000

LOEWDIN ATOMIC CHARGES AND SPIN POPULATIONS
-------------------------------------------
   0 V :   -0.289244    1.132676
   1 S :    0.076409   -0.016533
   2 S :    0.078051   -0.016505
   3 S :    0.076167   -0.016493
   4 S :    0.077620   -0.016476
   5 O :   -0.349751   -0.120931
   6 C :   -0.490993    0.014858
   7 C :   -0.490463    0.014799
   8 C :   -0.502319    0.013082
   9 C :   -0.502750    0.013069
  10 S :    0.291835   -0.000551
  11 S :    0.291665   -0.000574
  12 S :    0.300497   -0.000761
  13 S :    0.300414   -0.000772
  14 C :   -0.294937    0.000232
  15 C :   -0.294528    0.000207
  16 C :   -0.294955    0.000220
  17 C :   -0.294583    0.000218
  18 C :   -0.184290    0.000006
  19 H :    0.072427    0.000009
  20 H :    0.047361    0.000027
  21 H :    0.048592    0.000040
  22 H :    0.054121    0.000032
  23 H :    0.047373    0.000029
  24 H :    0.072593    0.000008
  25 C :   -0.184296   -0.000009
  26 H :    0.046998    0.000024
  27 H :    0.070989   -0.000005
  28 H :    0.053875    0.000022
  29 H :    0.048060    0.000033
  30 H :    0.071056   -0.000005
  31 H :    0.047005    0.000022

  Mayer bond orders larger than 0.100000
B(  0-V ,  1-S ) :   0.7866 B(  0-V ,  2-S ) :   0.7968 B(  0-V ,  3-S ) :   0.7889
B(  0-V ,  4-S ) :   0.7937 B(  0-V ,  5-O ) :   2.1031 B(  1-S ,  8-C ) :   1.0869
B(  2-S ,  6-C ) :   1.0714 B(  3-S ,  9-C ) :   1.0857 B(  4-S ,  7-C ) :   1.0731
B(  6-C ,  7-C ) :   1.6010 B(  6-C , 10-S ) :   0.8802 B(  7-C , 11-S ) :   0.8803
B(  8-C ,  9-C ) :   1.5868 B(  8-C , 13-S ) :   0.8916 B(  9-C , 12-S ) :   0.8921
B( 10-S , 16-C ) :   1.0195 B( 11-S , 14-C ) :   1.0191 B( 12-S , 15-C ) :   1.0174
B( 13-S , 17-C ) :   1.0174 B( 14-C , 18-C ) :   0.8675 B( 14-C , 23-H ) :   0.9658
B( 14-C , 24-H ) :   0.9836 B( 15-C , 25-C ) :   0.8694 B( 15-C , 30-H ) :   0.9820
B( 15-C , 31-H ) :   0.9666 B( 16-C , 18-C ) :   0.8680 B( 16-C , 19-H ) :   0.9836
B( 16-C , 20-H ) :   0.9657 B( 17-C , 25-C ) :   0.8695 B( 17-C , 26-H ) :   0.9667
B( 17-C , 27-H ) :   0.9820 B( 18-C , 21-H ) :   0.9561 B( 18-C , 22-H ) :   0.9673
B( 25-C , 28-H ) :   0.9689 B( 25-C , 29-H ) :   0.9553

FINAL SINGLE POINT ENERGY     -4592.696716460036

DIPOLE MOMENT
-------------
                                X             Y             Z
Electronic contribution:    -16.99059       5.26677      20.17363
Nuclear contribution   :     18.90689      -5.86237     -22.51166
                        -----------------------------------------
Total Dipole Moment    :      1.91630      -0.59560      -2.33804
                        -----------------------------------------
Magnitude (a.u.)       :      3.08113
Magnitude (Debye)      :      7.83161

Rotational constants in cm-1:     0.012433     0.002529     0.002402
Rotational constants in MHz :   372.728452    75.822781    72.024742

                             ****ORCA TERMINATED NORMALLY****
TOTAL RUN TIME: 0 days 0 hours 27 minutes 28 seconds 106 msec
