                         Program Version 5.0.4 -  RELEASE  -
|  1> ! nofrozencore ReducedPop printbasis
|  2> ! B3LYP TZVP
|  3>
|  4> %basis
|  5> newgto V "CP(PPP)" end
|  6> end
|  7>
|  8> %pal
|  9> nprocs 4
| 10> end
| 11>
| 12> % sym SymThresh 1e-2 end
| 13> * xyz -2 2
| 14> V 0.48979579844768717 0.13496880207354056 -0.9929365497567436
| 15> S -1.743218087509576 -0.7493283031237066 -1.4005689440421
| 16> S -0.6437350346534195 2.2398474408679836 -0.39923537676652215
| 17> S 0.9426507663200745 -2.139741473880002 -0.25110509074691006
| 18> S 2.098391983545642 0.83338089638845 0.7408480659360384
| 19> O 1.1889034954634419 0.32760243984511583 -2.4153872938281213
| 20> C 0.6142349036295153 3.1405493274634 0.4620168094976902
| 21> C 1.7482886227406857 2.5579017713337917 0.9352528874010098
| 22> C -1.567395738276401 -2.5054317717158656 -1.294407486169125
| 23> C -0.4395497257556921 -3.0897147915433796 -0.8119080780126202
| 24> S 0.21388015628535928 4.864959968852099 0.8193159840061326
| 25> S 2.9261754870109695 3.4694861540101014 1.9569683803079982
| 26> S -0.16816048057817146 -4.875091139424733 -0.7827017598294853
| 27> S -2.961277051627432 -3.4281187592100313 -1.978783204027924
| 28> C 1.9968184874378334 3.816048164563031 3.5164541585704767
| 29> C -1.4046865732275806 -5.420356504839552 0.4752709551684312
| 30> C -0.08649908450109821 4.8904567420150995 2.642641335754916
| 31> C -3.6264889252649644 -4.270808630114994 -0.47714320908911617
| 32> C 1.1807196374250786 5.104495898469757 3.465443768967147
| 33> H -0.5728693742416989 3.9432959289636558 2.9129084728126258
| 34> H -0.8110296079491769 5.702186868458123 2.8012229831478153
| 35> H 0.9100067351869293 5.417903454273258 4.495767012979468
| 36> H 1.785240687638363 5.915247086499484 3.0209168132272137
| 37> H 2.763831820384398 3.85647348107094 4.303225494939842
| 38> H 1.3498418945221806 2.951200272732114 3.7168792857373862
| 39> C -2.886967551883354 -5.508191885359802 0.06568103484305808
| 40> H -4.641017038367262 -4.589329500403527 -0.7688353819301562
| 41> H -3.7307324028044073 -3.4958974512547285 0.2967771726362128
| 42> H -2.990173085547851 -6.323650255477193 -0.6774693431340484
| 43> H -3.445110251339634 -5.836776492534217 0.9708253411858054
| 44> H -1.270050160159903 -4.7671471964766035 1.3500804375240278
| 45> H -1.0766110067147587 -6.433271880659004 0.7615699056237725
| 46> *
| 47>
| 48> % eprnmr
| 49> gtensor true
| 50> Nuclei = all H {aiso,adip,aorb,fgrad,rho}
| 51> Nuclei = all V {aiso,adip,aorb,fgrad,rho}
| 52> end
| 53>
| 54>                          ****END OF INPUT****

CARTESIAN COORDINATES (ANGSTROEM)
---------------------------------
  V      0.490340    0.135192   -0.993967
  S     -1.742674   -0.749105   -1.401600
  S     -0.643191    2.240070   -0.400266
  S      0.943195   -2.139518   -0.252136
  S      2.098936    0.833604    0.739817
  O      1.189448    0.327825   -2.416418
  C      0.614779    3.140772    0.460986
  C      1.748833    2.558125    0.934222
  C     -1.566851   -2.505209   -1.295438
  C     -0.439005   -3.089492   -0.812939
  S      0.214424    4.865183    0.818285
  S      2.926720    3.469709    1.955938
  S     -0.167616   -4.874868   -0.783733
  S     -2.960733   -3.427896   -1.979814
  C      1.997363    3.816271    3.515423
  C     -1.404142   -5.420133    0.474240
  C     -0.085955    4.890680    2.641611
  C     -3.625945   -4.270586   -0.478174
  C      1.181264    5.104719    3.464413
  H     -0.572325    3.943519    2.911878
  H     -0.810485    5.702410    2.800192
  H      0.910551    5.418126    4.494736
  H      1.785785    5.915470    3.019886
  H      2.764376    3.856697    4.302195
  H      1.350386    2.951423    3.715848
  C     -2.886423   -5.507969    0.064650
  H     -4.640473   -4.589106   -0.769866
  H     -3.730188   -3.495674    0.295746
  H     -2.989629   -6.323427   -0.678500
  H     -3.444566   -5.836553    0.969795
  H     -1.269506   -4.766924    1.349050
  H     -1.076067   -6.433049    0.760539

 Total Charge           Charge          ....   -2
 Multiplicity           Mult            ....    2
 Number of Electrons    NEL             ....  233
 Basis Dimension        Dim             ....  517

ORBITAL ENERGIES
----------------
                 SPIN UP ORBITALS
  NO   OCC          E(Eh)            E(eV)
   0   1.0000    -196.640123     -5350.8498
   1   1.0000     -88.679111     -2413.0813
   2   1.0000     -88.679067     -2413.0801
   3   1.0000     -88.674502     -2412.9559
   4   1.0000     -88.674470     -2412.9550
   5   1.0000     -88.612474     -2411.2680
   6   1.0000     -88.612447     -2411.2673
   7   1.0000     -88.611892     -2411.2522
   8   1.0000     -88.611789     -2411.2494
   9   1.0000     -22.015921      -599.0837
  10   1.0000     -18.857218      -513.1310
  11   1.0000     -18.522759      -504.0299
  12   1.0000     -18.516966      -503.8723
  13   1.0000     -18.516927      -503.8712
  14   1.0000     -10.019556      -272.6460
  15   1.0000     -10.019536      -272.6454
  16   1.0000     -10.015066      -272.5238
  17   1.0000     -10.015049      -272.5233
  18   1.0000     -10.010952      -272.4118
  19   1.0000     -10.004177      -272.2275
  20   1.0000      -9.992599      -271.9125
  21   1.0000      -9.991918      -271.8939
  22   1.0000      -9.991885      -271.8930
  23   1.0000      -9.991196      -271.8743
  24   1.0000      -7.732536      -210.4130
  25   1.0000      -7.732497      -210.4119
  26   1.0000      -7.728289      -210.2974
  27   1.0000      -7.728245      -210.2962
  28   1.0000      -7.667026      -208.6304
  29   1.0000      -7.666983      -208.6292
  30   1.0000      -7.666129      -208.6060
  31   1.0000      -7.666066      -208.6043
  32   1.0000      -5.697790      -155.0448
  33   1.0000      -5.697759      -155.0439
  34   1.0000      -5.693892      -154.9387
  35   1.0000      -5.693850      -154.9375
  36   1.0000      -5.693528      -154.9288
  37   1.0000      -5.693486      -154.9276
  38   1.0000      -5.689661      -154.8235
  39   1.0000      -5.689621      -154.8225
  40   1.0000      -5.687313      -154.7597
  41   1.0000      -5.687274      -154.7586
  42   1.0000      -5.682995      -154.6421
  43   1.0000      -5.682955      -154.6411
  44   1.0000      -5.631865      -153.2508
  45   1.0000      -5.631822      -153.2497
  46   1.0000      -5.631013      -153.2276
  47   1.0000      -5.630926      -153.2253
  48   1.0000      -5.625410      -153.0752
  49   1.0000      -5.625386      -153.0745
  50   1.0000      -5.625046      -153.0653
  51   1.0000      -5.625001      -153.0641
  52   1.0000      -5.624604      -153.0532
  53   1.0000      -5.624529      -153.0512
  54   1.0000      -5.624086      -153.0392
  55   1.0000      -5.624022      -153.0374
  56   1.0000      -2.409617       -65.5690
  57   1.0000      -1.451002       -39.4838
  58   1.0000      -1.439394       -39.1679
  59   1.0000      -1.438303       -39.1382
  60   1.0000      -0.644936       -17.5496
  61   1.0000      -0.640502       -17.4289
  62   1.0000      -0.618266       -16.8239
  63   1.0000      -0.592937       -16.1346
  64   1.0000      -0.592493       -16.1226
  65   1.0000      -0.577942       -15.7266
  66   1.0000      -0.572072       -15.5669
  67   1.0000      -0.492855       -13.4113
  68   1.0000      -0.488520       -13.2933
  69   1.0000      -0.486980       -13.2514
  70   1.0000      -0.483651       -13.1608
  71   1.0000      -0.423581       -11.5262
  72   1.0000      -0.418225       -11.3805
  73   1.0000      -0.412179       -11.2160
  74   1.0000      -0.406726       -11.0676
  75   1.0000      -0.377348       -10.2682
  76   1.0000      -0.370915       -10.0931
  77   1.0000      -0.293492        -7.9863
  78   1.0000      -0.292376        -7.9559
  79   1.0000      -0.278924        -7.5899
  80   1.0000      -0.270110        -7.3501
  81   1.0000      -0.261018        -7.1027
  82   1.0000      -0.254253        -6.9186
  83   1.0000      -0.242770        -6.6061
  84   1.0000      -0.235384        -6.4051
  85   1.0000      -0.196961        -5.3596
  86   1.0000      -0.192679        -5.2431
  87   1.0000      -0.191597        -5.2136
  88   1.0000      -0.189682        -5.1615
  89   1.0000      -0.185207        -5.0397
  90   1.0000      -0.181885        -4.9493
  91   1.0000      -0.179986        -4.8977
  92   1.0000      -0.151237        -4.1154
  93   1.0000      -0.150601        -4.0981
  94   1.0000      -0.143933        -3.9166
  95   1.0000      -0.142110        -3.8670
  96   1.0000      -0.141288        -3.8446
  97   1.0000      -0.097463        -2.6521
  98   1.0000      -0.096359        -2.6221
  99   1.0000      -0.089846        -2.4448
 100   1.0000      -0.083649        -2.2762
 101   1.0000      -0.081778        -2.2253
 102   1.0000      -0.079513        -2.1636
 103   1.0000      -0.070008        -1.9050
 104   1.0000      -0.050099        -1.3633
 105   1.0000      -0.038331        -1.0430
 106   1.0000      -0.038232        -1.0403
 107   1.0000      -0.035649        -0.9701
 108   1.0000      -0.031845        -0.8665
 109   1.0000      -0.013048        -0.3550
 110   1.0000      -0.004749        -0.1292
 111   1.0000      -0.002802        -0.0763
 112   1.0000       0.005983         0.1628
 113   1.0000       0.011124         0.3027
 114   1.0000       0.016181         0.4403
 115   1.0000       0.033434         0.9098
 116   1.0000       0.059524         1.6197
 117   0.0000       0.187462         5.1011
 118   0.0000       0.191989         5.2243
 119   0.0000       0.195234         5.3126
 120   0.0000       0.199864         5.4386
 121   0.0000       0.211390         5.7522

                 SPIN DOWN ORBITALS
  NO   OCC          E(Eh)            E(eV)
   0   1.0000    -196.640264     -5350.8536
   1   1.0000     -88.679125     -2413.0817
   2   1.0000     -88.679080     -2413.0805
   3   1.0000     -88.674515     -2412.9562
   4   1.0000     -88.674483     -2412.9553
   5   1.0000     -88.612632     -2411.2723
   6   1.0000     -88.612605     -2411.2716
   7   1.0000     -88.612051     -2411.2565
   8   1.0000     -88.611948     -2411.2537
   9   1.0000     -22.001259      -598.6847
  10   1.0000     -18.860800      -513.2285
  11   1.0000     -18.517629      -503.8903
  12   1.0000     -18.501490      -503.4511
  13   1.0000     -18.500793      -503.4322
  14   1.0000     -10.019553      -272.6459
  15   1.0000     -10.019534      -272.6454
  16   1.0000     -10.015061      -272.5237
  17   1.0000     -10.015044      -272.5232
  18   1.0000     -10.010951      -272.4118
  19   1.0000     -10.004177      -272.2275
  20   1.0000      -9.992338      -271.9053
  21   1.0000      -9.991669      -271.8871
  22   1.0000      -9.991626      -271.8860
  23   1.0000      -9.990949      -271.8675
  24   1.0000      -7.732550      -210.4134
  25   1.0000      -7.732512      -210.4123
  26   1.0000      -7.728302      -210.2978
  27   1.0000      -7.728258      -210.2966
  28   1.0000      -7.667173      -208.6344
  29   1.0000      -7.667130      -208.6332
  30   1.0000      -7.666277      -208.6100
  31   1.0000      -7.666214      -208.6083
  32   1.0000      -5.697807      -155.0452
  33   1.0000      -5.697776      -155.0444
  34   1.0000      -5.693912      -154.9392
  35   1.0000      -5.693871      -154.9381
  36   1.0000      -5.693545      -154.9292
  37   1.0000      -5.693502      -154.9281
  38   1.0000      -5.689680      -154.8241
  39   1.0000      -5.689640      -154.8230
  40   1.0000      -5.687330      -154.7601
  41   1.0000      -5.687290      -154.7590
  42   1.0000      -5.683011      -154.6426
  43   1.0000      -5.682971      -154.6415
  44   1.0000      -5.632039      -153.2556
  45   1.0000      -5.631996      -153.2544
  46   1.0000      -5.631180      -153.2322
  47   1.0000      -5.631093      -153.2298
  48   1.0000      -5.625789      -153.0855
  49   1.0000      -5.625766      -153.0849
  50   1.0000      -5.625182      -153.0690
  51   1.0000      -5.625136      -153.0677
  52   1.0000      -5.625004      -153.0642
  53   1.0000      -5.624930      -153.0621
  54   1.0000      -5.624215      -153.0427
  55   1.0000      -5.624149      -153.0409
  56   1.0000      -2.365453       -64.3673
  57   1.0000      -1.432178       -38.9715
  58   1.0000      -1.378032       -37.4982
  59   1.0000      -1.377338       -37.4793
  60   1.0000      -0.644889       -17.5483
  61   1.0000      -0.640442       -17.4273
  62   1.0000      -0.625940       -17.0327
  63   1.0000      -0.592751       -16.1296
  64   1.0000      -0.592287       -16.1169
  65   1.0000      -0.577939       -15.7265
  66   1.0000      -0.572063       -15.5666
  67   1.0000      -0.492880       -13.4120
  68   1.0000      -0.488517       -13.2932
  69   1.0000      -0.487015       -13.2524
  70   1.0000      -0.483681       -13.1616
  71   1.0000      -0.423830       -11.5330
  72   1.0000      -0.418517       -11.3884
  73   1.0000      -0.412191       -11.2163
  74   1.0000      -0.406810       -11.0699
  75   1.0000      -0.377346       -10.2681
  76   1.0000      -0.370898       -10.0927
  77   1.0000      -0.293475        -7.9859
  78   1.0000      -0.292363        -7.9556
  79   1.0000      -0.278894        -7.5891
  80   1.0000      -0.270093        -7.3496
  81   1.0000      -0.260820        -7.0973
  82   1.0000      -0.254194        -6.9170
  83   1.0000      -0.242699        -6.6042
  84   1.0000      -0.235295        -6.4027
  85   1.0000      -0.196648        -5.3511
  86   1.0000      -0.192610        -5.2412
  87   1.0000      -0.191504        -5.2111
  88   1.0000      -0.189670        -5.1612
  89   1.0000      -0.184770        -5.0279
  90   1.0000      -0.181729        -4.9451
  91   1.0000      -0.178247        -4.8503
  92   1.0000      -0.150977        -4.1083
  93   1.0000      -0.149923        -4.0796
  94   1.0000      -0.143678        -3.9097
  95   1.0000      -0.141878        -3.8607
  96   1.0000      -0.141149        -3.8409
  97   1.0000      -0.095931        -2.6104
  98   1.0000      -0.095853        -2.6083
  99   1.0000      -0.089949        -2.4476
 100   1.0000      -0.083645        -2.2761
 101   1.0000      -0.082643        -2.2488
 102   1.0000      -0.080089        -2.1793
 103   1.0000      -0.071297        -1.9401
 104   1.0000      -0.046016        -1.2522
 105   1.0000      -0.038515        -1.0480
 106   1.0000      -0.037545        -1.0217
 107   1.0000      -0.034619        -0.9420
 108   1.0000      -0.031744        -0.8638
 109   1.0000      -0.012121        -0.3298
 110   1.0000      -0.005888        -0.1602
 111   1.0000      -0.001946        -0.0530
 112   1.0000       0.006796         0.1849
 113   1.0000       0.012021         0.3271
 114   1.0000       0.033698         0.9170
 115   1.0000       0.058618         1.5951
 116   0.0000       0.185208         5.0398
 117   0.0000       0.188609         5.1323
 118   0.0000       0.192113         5.2276
 119   0.0000       0.195854         5.3295
 120   0.0000       0.200114         5.4454

MULLIKEN ATOMIC CHARGES AND SPIN POPULATIONS
--------------------------------------------
   0 V :    0.447728    1.198486
   1 S :   -0.248271   -0.022711
   2 S :   -0.259865   -0.025269
   3 S :   -0.248499   -0.022698
   4 S :   -0.260139   -0.025172
   5 O :   -0.506431   -0.138796
   6 C :   -0.115870    0.009164
   7 C :   -0.114376    0.009216
   8 C :   -0.114448    0.008660
   9 C :   -0.114611    0.008711
  10 S :   -0.047094   -0.000253
  11 S :   -0.046974   -0.000287
  12 S :   -0.039717   -0.000114
  13 S :   -0.039762   -0.000146
  14 C :   -0.348923    0.000357
  15 C :   -0.331170    0.000187
  16 C :   -0.348306    0.000333
  17 C :   -0.330402    0.000205
  18 C :   -0.102408    0.000208
  19 H :    0.151270   -0.000090
  20 H :    0.109177    0.000036
  21 H :    0.043519    0.000088
  22 H :    0.094471   -0.000054
  23 H :    0.109155    0.000037
  24 H :    0.151694   -0.000093
  25 C :   -0.064324    0.000106
  26 H :    0.091720    0.000010
  27 H :    0.141237   -0.000103
  28 H :    0.063768    0.000077
  29 H :    0.044369   -0.000005
  30 H :    0.141649   -0.000100
  31 H :    0.091830    0.000008
Sum of atomic charges         :   -2.0000000

LOEWDIN ATOMIC CHARGES AND SPIN POPULATIONS
-------------------------------------------
   0 V :   -0.243669    1.152617
   1 S :    0.095404   -0.015436
   2 S :    0.080256   -0.016989
   3 S :    0.095140   -0.015409
   4 S :    0.079872   -0.016960
   5 O :   -0.350883   -0.124255
   6 C :   -0.552268    0.009756
   7 C :   -0.551730    0.009748
   8 C :   -0.551042    0.010199
   9 C :   -0.551306    0.010272
  10 S :    0.335040   -0.001001
  11 S :    0.334920   -0.001017
  12 S :    0.337696   -0.001032
  13 S :    0.337749   -0.001051
  14 C :   -0.294019    0.000225
  15 C :   -0.297724    0.000107
  16 C :   -0.294112    0.000213
  17 C :   -0.297805    0.000114
  18 C :   -0.192662   -0.000036
  19 H :    0.069040   -0.000020
  20 H :    0.047347    0.000018
  21 H :    0.044313    0.000037
  22 H :    0.056934    0.000008
  23 H :    0.047354    0.000020
  24 H :    0.069184   -0.000020
  25 C :   -0.181301   -0.000041
  26 H :    0.048506   -0.000009
  27 H :    0.063747   -0.000034
  28 H :    0.052510    0.000017
  29 H :    0.051156    0.000004
  30 H :    0.063857   -0.000034
  31 H :    0.048497   -0.000010

  Mayer bond orders larger than 0.100000
B(  0-V ,  1-S ) :   0.7993 B(  0-V ,  2-S ) :   0.7800 B(  0-V ,  3-S ) :   0.8010
B(  0-V ,  4-S ) :   0.7770 B(  0-V ,  5-O ) :   2.1081 B(  1-S ,  8-C ) :   1.1361
B(  2-S ,  6-C ) :   1.1373 B(  3-S ,  9-C ) :   1.1354 B(  4-S ,  7-C ) :   1.1386
B(  6-C ,  7-C ) :   1.5286 B(  6-C , 10-S ) :   0.9524 B(  7-C , 11-S ) :   0.9521
B(  8-C ,  9-C ) :   1.5018 B(  8-C , 13-S ) :   0.9529 B(  9-C , 12-S ) :   0.9530
B( 10-S , 16-C ) :   0.9905 B( 11-S , 14-C ) :   0.9905 B( 12-S , 15-C ) :   1.0233
B( 13-S , 17-C ) :   1.0237 B( 14-C , 18-C ) :   0.8686 B( 14-C , 23-H ) :   0.9696
B( 14-C , 24-H ) :   0.9783 B( 15-C , 25-C ) :   0.8802 B( 15-C , 30-H ) :   0.9746
B( 15-C , 31-H ) :   0.9674 B( 16-C , 18-C ) :   0.8686 B( 16-C , 19-H ) :   0.9783
B( 16-C , 20-H ) :   0.9696 B( 17-C , 25-C ) :   0.8800 B( 17-C , 26-H ) :   0.9674
B( 17-C , 27-H ) :   0.9745 B( 18-C , 21-H ) :   0.9470 B( 18-C , 22-H ) :   0.9738
B( 25-C , 28-H ) :   0.9739 B( 25-C , 29-H ) :   0.9537

FINAL SINGLE POINT ENERGY     -4592.717963587245

DIPOLE MOMENT
-------------
                                X             Y             Z
Electronic contribution:     11.87565       3.54812     -23.67756
Nuclear contribution   :    -13.26632      -4.05750      26.33660
                        -----------------------------------------
Total Dipole Moment    :     -1.39067      -0.50938       2.65905
                        -----------------------------------------
Magnitude (a.u.)       :      3.04368
Magnitude (Debye)      :      7.73641

Rotational constants in cm-1:     0.012754     0.002548     0.002431
Rotational constants in MHz :   382.352741    76.392037    72.868609

                             ****ORCA TERMINATED NORMALLY****
TOTAL RUN TIME: 0 days 0 hours 43 minutes 14 seconds 809 msec
