                         Program Version 5.0.4 -  RELEASE  -
|  1> ! nofrozencore ReducedPop printbasis
|  2> ! B3LYP TZVP
|  3>
|  4> %basis
|  5> newgto V "CP(PPP)" end
|  6> end
|  7>
|  8> %pal
|  9> nprocs 4
| 10> end
| 11>
| 12> % sym SymThresh 1e-2 end
| 13> * xyz -2 2
| 14> V 0.02473182229899554 0.487608279413372 1.002875498118935
| 15> S 0.5321965198419065 -1.8889846457155828 1.3190472935872832
| 16> S 2.2647558627568034 0.65445130363798 0.026877305505513507
| 17> S -2.24940848787218 -0.3380857962495829 0.6213969018967499
| 18> S -0.51479907739405 2.2210054711262077 -0.6437174337329143
| 19> O 0.06042031635157331 1.1802261580777123 2.4410089670667126
| 20> C 2.2207885947905934 2.1654963611017233 -0.8933967768025679
| 21> C 1.0617243913639123 2.8200003073385718 -1.1687600849016417
| 22> C -1.0541699132826052 -2.6375131127395504 1.539034001187002
| 23> C -2.214100158032732 -1.9910069027070723 1.248259423898423
| 24> S 3.836303915137328 2.7610050590495465 -1.4409598272501634
| 25> S 1.0132513611524925 4.334258735635039 -2.1439220806286268
| 26> S -3.833679628243617 -2.7637941944524127 1.4357477613445964
| 27> S -1.011469094934282 -4.337016611053739 2.1441269130048646
| 28> C 1.4269501227342651 3.7964108723741488 -3.7906963775714106
| 29> C -3.8159922383270555 -4.078187862058971 0.13807124259436468
| 30> C 3.689528203141449 2.6211838501723057 -3.3476018581847096
| 31> C -1.6099578536971806 -5.307404023477601 0.6927796744582905
| 32> C 3.174409557606262 3.5893724470237163 -4.020161295810033
| 33> H 3.186188305252995 1.7013133560252844 -3.6937396475986284
| 34> H 4.747814231001016 2.547027939691112 -3.6247666080572816
| 35> H 3.549471238583036 3.2892876794190933 -5.0433659458886755
| 36> H 3.6909871115322797 4.524106743445679 -3.772645860989597
| 37> H 1.0377017936527901 4.522860246545375 -4.511692996068692
| 38> H 0.8184836892688111 2.8771425511059316 -3.8624785704296887
| 39> C -3.1276916389943104 -5.3868366203708025 0.5143728897766281
| 40> H -1.2084914717890243 -6.314083553020349 0.8461604305692414
| 41> H -1.1293835651595865 -4.888103045173515 -0.19381350009180734
| 42> H -3.5779764077002287 -5.778970773883361 1.4327414528391094
| 43> H -3.337597504851217 -6.118020494066027 -0.2830487243886192
| 44> H -3.3680299512573226 -3.6420133486747375 -0.7574087050573304
| 45> H -4.871906905803975 -4.271188880405785 -0.07619764366120044
| 46> *
| 47>
| 48> % eprnmr
| 49> gtensor true
| 50> Nuclei = all H {aiso,adip,aorb,fgrad,rho}
| 51> Nuclei = all V {aiso,adip,aorb,fgrad,rho}
| 52> end
| 53>
| 54>                          ****END OF INPUT****

CARTESIAN COORDINATES (ANGSTROEM)
---------------------------------
  V      0.024806    0.488185    1.003910
  S      0.532271   -1.888408    1.320082
  S      2.264830    0.655028    0.027912
  S     -2.249334   -0.337509    0.622431
  S     -0.514725    2.221582   -0.642683
  O      0.060494    1.180803    2.442043
  C      2.220863    2.166073   -0.892362
  C      1.061798    2.820577   -1.167726
  C     -1.054096   -2.636936    1.540068
  C     -2.214026   -1.990430    1.249294
  S      3.836378    2.761582   -1.439925
  S      1.013325    4.334835   -2.142888
  S     -3.833606   -2.763218    1.436782
  S     -1.011395   -4.336440    2.145161
  C      1.427024    3.796987   -3.789662
  C     -3.815918   -4.077611    0.139106
  C      3.689602    2.621760   -3.346567
  C     -1.609884   -5.306827    0.693814
  C      3.174484    3.589949   -4.019127
  H      3.186262    1.701890   -3.692705
  H      4.747888    2.547605   -3.623732
  H      3.549545    3.289864   -5.042331
  H      3.691061    4.524683   -3.771611
  H      1.037776    4.523437   -4.510658
  H      0.818558    2.877719   -3.861444
  C     -3.127618   -5.386260    0.515407
  H     -1.208417   -6.313507    0.847195
  H     -1.129310   -4.887526   -0.192779
  H     -3.577902   -5.778394    1.433776
  H     -3.337523   -6.117444   -0.282014
  H     -3.367956   -3.641437   -0.756374
  H     -4.871833   -4.270612   -0.075163

 Total Charge           Charge          ....   -2
 Multiplicity           Mult            ....    2
 Number of Electrons    NEL             ....  233
 Basis Dimension        Dim             ....  517

ORBITAL ENERGIES
----------------
                 SPIN UP ORBITALS
  NO   OCC          E(Eh)            E(eV)
   0   1.0000    -196.640099     -5350.8491
   1   1.0000     -88.676834     -2413.0193
   2   1.0000     -88.676376     -2413.0069
   3   1.0000     -88.676368     -2413.0066
   4   1.0000     -88.675754     -2412.9899
   5   1.0000     -88.612237     -2411.2615
   6   1.0000     -88.611954     -2411.2539
   7   1.0000     -88.611813     -2411.2500
   8   1.0000     -88.611715     -2411.2473
   9   1.0000     -22.015904      -599.0832
  10   1.0000     -18.857170      -513.1297
  11   1.0000     -18.522728      -504.0291
  12   1.0000     -18.516954      -503.8719
  13   1.0000     -18.516916      -503.8709
  14   1.0000     -10.025879      -272.8180
  15   1.0000     -10.015355      -272.5317
  16   1.0000     -10.015126      -272.5254
  17   1.0000     -10.004536      -272.2373
  18   1.0000     -10.003775      -272.2166
  19   1.0000     -10.002441      -272.1802
  20   1.0000      -9.992716      -271.9156
  21   1.0000      -9.991730      -271.8888
  22   1.0000      -9.991019      -271.8694
  23   1.0000      -9.990280      -271.8493
  24   1.0000      -7.731463      -210.3838
  25   1.0000      -7.730040      -210.3451
  26   1.0000      -7.730028      -210.3448
  27   1.0000      -7.728741      -210.3097
  28   1.0000      -7.666721      -208.6221
  29   1.0000      -7.666372      -208.6126
  30   1.0000      -7.666257      -208.6095
  31   1.0000      -7.666131      -208.6060
  32   1.0000      -5.696559      -155.0112
  33   1.0000      -5.695288      -154.9767
  34   1.0000      -5.695269      -154.9762
  35   1.0000      -5.693913      -154.9393
  36   1.0000      -5.692578      -154.9029
  37   1.0000      -5.691386      -154.8705
  38   1.0000      -5.691383      -154.8704
  39   1.0000      -5.690304      -154.8410
  40   1.0000      -5.686384      -154.7344
  41   1.0000      -5.684788      -154.6909
  42   1.0000      -5.684781      -154.6908
  43   1.0000      -5.683502      -154.6560
  44   1.0000      -5.631548      -153.2422
  45   1.0000      -5.631215      -153.2332
  46   1.0000      -5.631099      -153.2300
  47   1.0000      -5.630980      -153.2268
  48   1.0000      -5.625138      -153.0678
  49   1.0000      -5.624822      -153.0592
  50   1.0000      -5.624712      -153.0562
  51   1.0000      -5.624684      -153.0554
  52   1.0000      -5.624570      -153.0523
  53   1.0000      -5.624353      -153.0464
  54   1.0000      -5.624241      -153.0434
  55   1.0000      -5.624104      -153.0396
  56   1.0000      -2.409587       -65.5682
  57   1.0000      -1.450946       -39.4822
  58   1.0000      -1.439369       -39.1672
  59   1.0000      -1.438292       -39.1379
  60   1.0000      -0.667413       -18.1612
  61   1.0000      -0.643728       -17.5167
  62   1.0000      -0.618269       -16.8240
  63   1.0000      -0.611469       -16.6389
  64   1.0000      -0.593517       -16.1504
  65   1.0000      -0.575800       -15.6683
  66   1.0000      -0.572588       -15.5809
  67   1.0000      -0.503324       -13.6961
  68   1.0000      -0.490541       -13.3483
  69   1.0000      -0.486907       -13.2494
  70   1.0000      -0.469516       -12.7762
  71   1.0000      -0.422434       -11.4950
  72   1.0000      -0.419824       -11.4240
  73   1.0000      -0.410326       -11.1655
  74   1.0000      -0.400065       -10.8863
  75   1.0000      -0.375760       -10.2250
  76   1.0000      -0.372904       -10.1472
  77   1.0000      -0.305482        -8.3126
  78   1.0000      -0.292704        -7.9649
  79   1.0000      -0.290503        -7.9050
  80   1.0000      -0.277577        -7.5533
  81   1.0000      -0.259763        -7.0685
  82   1.0000      -0.255525        -6.9532
  83   1.0000      -0.243316        -6.6210
  84   1.0000      -0.239786        -6.5249
  85   1.0000      -0.215975        -5.8770
  86   1.0000      -0.194786        -5.3004
  87   1.0000      -0.192339        -5.2338
  88   1.0000      -0.190924        -5.1953
  89   1.0000      -0.184486        -5.0201
  90   1.0000      -0.181316        -4.9339
  91   1.0000      -0.156838        -4.2678
  92   1.0000      -0.148987        -4.0541
  93   1.0000      -0.147749        -4.0205
  94   1.0000      -0.143402        -3.9022
  95   1.0000      -0.142145        -3.8680
  96   1.0000      -0.134297        -3.6544
  97   1.0000      -0.097368        -2.6495
  98   1.0000      -0.095803        -2.6069
  99   1.0000      -0.088548        -2.4095
 100   1.0000      -0.083355        -2.2682
 101   1.0000      -0.080179        -2.1818
 102   1.0000      -0.078935        -2.1479
 103   1.0000      -0.068672        -1.8687
 104   1.0000      -0.050131        -1.3641
 105   1.0000      -0.038464        -1.0467
 106   1.0000      -0.037877        -1.0307
 107   1.0000      -0.035567        -0.9678
 108   1.0000      -0.031486        -0.8568
 109   1.0000      -0.012965        -0.3528
 110   1.0000      -0.004150        -0.1129
 111   1.0000      -0.003005        -0.0818
 112   1.0000       0.006298         0.1714
 113   1.0000       0.010722         0.2918
 114   1.0000       0.016303         0.4436
 115   1.0000       0.033684         0.9166
 116   1.0000       0.059838         1.6283
 117   0.0000       0.187304         5.0968
 118   0.0000       0.191432         5.2091
 119   0.0000       0.194867         5.3026
 120   0.0000       0.196555         5.3485
 121   0.0000       0.211434         5.7534

                 SPIN DOWN ORBITALS
  NO   OCC          E(Eh)            E(eV)
   0   1.0000    -196.640241     -5350.8530
   1   1.0000     -88.676846     -2413.0197
   2   1.0000     -88.676389     -2413.0072
   3   1.0000     -88.676381     -2413.0070
   4   1.0000     -88.675767     -2412.9903
   5   1.0000     -88.612395     -2411.2659
   6   1.0000     -88.612114     -2411.2582
   7   1.0000     -88.611973     -2411.2544
   8   1.0000     -88.611875     -2411.2517
   9   1.0000     -22.001234      -598.6840
  10   1.0000     -18.860745      -513.2270
  11   1.0000     -18.517599      -503.8895
  12   1.0000     -18.501458      -503.4503
  13   1.0000     -18.500784      -503.4319
  14   1.0000     -10.025875      -272.8179
  15   1.0000     -10.015351      -272.5316
  16   1.0000     -10.015123      -272.5253
  17   1.0000     -10.004536      -272.2373
  18   1.0000     -10.003773      -272.2165
  19   1.0000     -10.002439      -272.1802
  20   1.0000      -9.992460      -271.9087
  21   1.0000      -9.991475      -271.8819
  22   1.0000      -9.990766      -271.8626
  23   1.0000      -9.990030      -271.8425
  24   1.0000      -7.731476      -210.3842
  25   1.0000      -7.730054      -210.3455
  26   1.0000      -7.730042      -210.3451
  27   1.0000      -7.728755      -210.3101
  28   1.0000      -7.666869      -208.6261
  29   1.0000      -7.666520      -208.6166
  30   1.0000      -7.666406      -208.6135
  31   1.0000      -7.666280      -208.6101
  32   1.0000      -5.696576      -155.0117
  33   1.0000      -5.695305      -154.9771
  34   1.0000      -5.695286      -154.9766
  35   1.0000      -5.693930      -154.9397
  36   1.0000      -5.692597      -154.9034
  37   1.0000      -5.691406      -154.8710
  38   1.0000      -5.691403      -154.8710
  39   1.0000      -5.690325      -154.8416
  40   1.0000      -5.686400      -154.7348
  41   1.0000      -5.684805      -154.6914
  42   1.0000      -5.684799      -154.6912
  43   1.0000      -5.683520      -154.6564
  44   1.0000      -5.631718      -153.2468
  45   1.0000      -5.631387      -153.2378
  46   1.0000      -5.631270      -153.2347
  47   1.0000      -5.631152      -153.2314
  48   1.0000      -5.625526      -153.0783
  49   1.0000      -5.625214      -153.0699
  50   1.0000      -5.625077      -153.0661
  51   1.0000      -5.624962      -153.0630
  52   1.0000      -5.624846      -153.0598
  53   1.0000      -5.624488      -153.0501
  54   1.0000      -5.624376      -153.0471
  55   1.0000      -5.624239      -153.0433
  56   1.0000      -2.365406       -64.3660
  57   1.0000      -1.432122       -38.9700
  58   1.0000      -1.377952       -37.4960
  59   1.0000      -1.377315       -37.4787
  60   1.0000      -0.667401       -18.1609
  61   1.0000      -0.643679       -17.5154
  62   1.0000      -0.625879       -17.0310
  63   1.0000      -0.611353       -16.6358
  64   1.0000      -0.593319       -16.1450
  65   1.0000      -0.575795       -15.6682
  66   1.0000      -0.572515       -15.5789
  67   1.0000      -0.503311       -13.6958
  68   1.0000      -0.490571       -13.3491
  69   1.0000      -0.486919       -13.2497
  70   1.0000      -0.469607       -12.7787
  71   1.0000      -0.422667       -11.5013
  72   1.0000      -0.420088       -11.4312
  73   1.0000      -0.410375       -11.1669
  74   1.0000      -0.400134       -10.8882
  75   1.0000      -0.375720       -10.2239
  76   1.0000      -0.372928       -10.1479
  77   1.0000      -0.305467        -8.3122
  78   1.0000      -0.292687        -7.9644
  79   1.0000      -0.290484        -7.9045
  80   1.0000      -0.277558        -7.5527
  81   1.0000      -0.259584        -7.0636
  82   1.0000      -0.255494        -6.9524
  83   1.0000      -0.243200        -6.6178
  84   1.0000      -0.239709        -6.5228
  85   1.0000      -0.215940        -5.8760
  86   1.0000      -0.194341        -5.2883
  87   1.0000      -0.192288        -5.2324
  88   1.0000      -0.190814        -5.1923
  89   1.0000      -0.184430        -5.0186
  90   1.0000      -0.179246        -4.8775
  91   1.0000      -0.156635        -4.2623
  92   1.0000      -0.148473        -4.0402
  93   1.0000      -0.147398        -4.0109
  94   1.0000      -0.143080        -3.8934
  95   1.0000      -0.142040        -3.8651
  96   1.0000      -0.134119        -3.6496
  97   1.0000      -0.096202        -2.6178
  98   1.0000      -0.094983        -2.5846
  99   1.0000      -0.088719        -2.4142
 100   1.0000      -0.083144        -2.2625
 101   1.0000      -0.082046        -2.2326
 102   1.0000      -0.078839        -2.1453
 103   1.0000      -0.069781        -1.8988
 104   1.0000      -0.045994        -1.2515
 105   1.0000      -0.038529        -1.0484
 106   1.0000      -0.037232        -1.0131
 107   1.0000      -0.034597        -0.9414
 108   1.0000      -0.031362        -0.8534
 109   1.0000      -0.012061        -0.3282
 110   1.0000      -0.005480        -0.1491
 111   1.0000      -0.002005        -0.0546
 112   1.0000       0.007128         0.1940
 113   1.0000       0.011612         0.3160
 114   1.0000       0.033942         0.9236
 115   1.0000       0.059049         1.6068
 116   0.0000       0.185269         5.0414
 117   0.0000       0.188471         5.1286
 118   0.0000       0.191599         5.2137
 119   0.0000       0.195399         5.3171
 120   0.0000       0.196742         5.3536

MULLIKEN ATOMIC CHARGES AND SPIN POPULATIONS
--------------------------------------------
   0 V :    0.447754    1.199167
   1 S :   -0.253636   -0.024228
   2 S :   -0.251567   -0.024200
   3 S :   -0.254342   -0.024176
   4 S :   -0.257394   -0.023770
   5 O :   -0.506484   -0.138744
   6 C :   -0.085121    0.008924
   7 C :   -0.148493    0.008758
   8 C :   -0.116196    0.008898
   9 C :   -0.115656    0.008900
  10 S :   -0.067172   -0.000278
  11 S :   -0.027267   -0.000068
  12 S :   -0.045202   -0.000191
  13 S :   -0.044819   -0.000226
  14 C :   -0.323513    0.000335
  15 C :   -0.338059    0.000301
  16 C :   -0.358904    0.000165
  17 C :   -0.337447    0.000319
  18 C :   -0.042791    0.000138
  19 H :    0.130219   -0.000052
  20 H :    0.095471    0.000060
  21 H :    0.034387    0.000068
  22 H :    0.071915    0.000006
  23 H :    0.105267    0.000009
  24 H :    0.153390   -0.000136
  25 C :   -0.083840    0.000136
  26 H :    0.101623    0.000028
  27 H :    0.147002   -0.000110
  28 H :    0.078261    0.000011
  29 H :    0.044403    0.000035
  30 H :    0.146748   -0.000105
  31 H :    0.101462    0.000028
Sum of atomic charges         :   -2.0000000

LOEWDIN ATOMIC CHARGES AND SPIN POPULATIONS
-------------------------------------------
   0 V :   -0.242788    1.153168
   1 S :    0.088217   -0.016420
   2 S :    0.088629   -0.016392
   3 S :    0.087664   -0.016358
   4 S :    0.086835   -0.016093
   5 O :   -0.350891   -0.124190
   6 C :   -0.545183    0.010098
   7 C :   -0.561409    0.009828
   8 C :   -0.552625    0.009938
   9 C :   -0.552931    0.009995
  10 S :    0.307339   -0.001100
  11 S :    0.361614   -0.000956
  12 S :    0.336386   -0.001037
  13 S :    0.336852   -0.001060
  14 C :   -0.314037    0.000135
  15 C :   -0.293590    0.000170
  16 C :   -0.284293    0.000168
  17 C :   -0.293897    0.000177
  18 C :   -0.181433   -0.000039
  19 H :    0.068942   -0.000006
  20 H :    0.048404    0.000032
  21 H :    0.056566    0.000032
  22 H :    0.049541    0.000010
  23 H :    0.045400   -0.000009
  24 H :    0.069112   -0.000043
  25 C :   -0.184834   -0.000039
  26 H :    0.047233    0.000009
  27 H :    0.065908   -0.000028
  28 H :    0.053380    0.000010
  29 H :    0.046740    0.000018
  30 H :    0.065924   -0.000027
  31 H :    0.047225    0.000009

  Mayer bond orders larger than 0.100000
B(  0-V ,  1-S ) :   0.7888 B(  0-V ,  2-S ) :   0.7926 B(  0-V ,  3-S ) :   0.7905
B(  0-V ,  4-S ) :   0.7846 B(  0-V ,  5-O ) :   2.1081 B(  1-S ,  8-C ) :   1.1380
B(  2-S ,  6-C ) :   1.1406 B(  3-S ,  9-C ) :   1.1368 B(  4-S ,  7-C ) :   1.1297
B(  6-C ,  7-C ) :   1.5205 B(  6-C , 10-S ) :   0.9418 B(  7-C , 11-S ) :   0.9638
B(  8-C ,  9-C ) :   1.5179 B(  8-C , 13-S ) :   0.9537 B(  9-C , 12-S ) :   0.9535
B( 10-S , 16-C ) :   0.9976 B( 11-S , 14-C ) :   0.9971 B( 12-S , 15-C ) :   1.0052
B( 13-S , 17-C ) :   1.0052 B( 14-C , 18-C ) :   0.8084 B( 14-C , 23-H ) :   0.9537
B( 14-C , 24-H ) :   0.9720 B( 15-C , 25-C ) :   0.8784 B( 15-C , 30-H ) :   0.9752
B( 15-C , 31-H ) :   0.9703 B( 16-C , 18-C ) :   0.8701 B( 16-C , 19-H ) :   0.9716
B( 16-C , 20-H ) :   0.9876 B( 17-C , 25-C ) :   0.8777 B( 17-C , 26-H ) :   0.9700
B( 17-C , 27-H ) :   0.9751 B( 18-C , 21-H ) :   0.9453 B( 18-C , 22-H ) :   0.9730
B( 25-C , 28-H ) :   0.9739 B( 25-C , 29-H ) :   0.9526

FINAL SINGLE POINT ENERGY     -4592.645615805985

DIPOLE MOMENT
-------------
                                X             Y             Z
Electronic contribution:      0.46982      11.74675      23.97454
Nuclear contribution   :     -0.54819     -13.08847     -26.71718
                        -----------------------------------------
Total Dipole Moment    :     -0.07837      -1.34173      -2.74264
                        -----------------------------------------
Magnitude (a.u.)       :      3.05425
Magnitude (Debye)      :      7.76329

Rotational constants in cm-1:     0.012763     0.002548     0.002431
Rotational constants in MHz :   382.631383    76.397176    72.874656

                             ****ORCA TERMINATED NORMALLY****
TOTAL RUN TIME: 0 days 0 hours 42 minutes 59 seconds 578 msec
