                         Program Version 5.0.4 -  RELEASE  -
|  1> ! nofrozencore ReducedPop printbasis
|  2> ! B3LYP TZVP
|  3>
|  4> %basis
|  5> newgto V "CP(PPP)" end
|  6> end
|  7>
|  8> %pal
|  9> nprocs 4
| 10> end
| 11>
| 12> % sym SymThresh 1e-2 end
| 13> * xyz -2 2
| 14> V -0.2241339028624739 0.8035667409655289 -0.7403889842377949
| 15> S -2.346284468325467 0.11216129669369294 0.27153015946607
| 16> S 0.2513856504501183 1.8713111957856967 1.4116895850575217
| 17> S -0.3948102386500254 -1.3517113772919227 -1.891371278360408
| 18> S 2.198202768673822 0.43094409470107914 -0.771170237661576
| 19> O -0.5507412779105681 1.9526623337121156 -1.7996984495913166
| 20> C 2.0026608009426536 2.114248453971143 1.3936881974808295
| 21> C 2.8143843480423083 1.5124184214981307 0.48426668663204325
| 22> C -2.8952783486812956 -1.2168976642333693 -0.7567088310669332
| 23> C -2.0818541986180295 -1.827403793015453 -1.6586994389156886
| 24> S 2.629567115805769 3.1972861608950582 2.6930735449446734
| 25> S 4.605445767671807 1.7289001826491979 0.4844984897751645
| 26> S -2.626668160325448 -3.208660015849005 -2.6836285070088204
| 27> S -4.606760780886599 -1.722864934948914 -0.4896976160903386
| 28> C 5.114072624716584 0.889755071811745 2.048762732300816
| 29> C -2.8804976741621604 -4.56084432813152 -1.4520485414964381
| 30> C 3.577899556789842 2.0338211109009854 3.768307247275697
| 31> C -4.429039983363059 -3.3996925835668823 0.26213373992238664
| 32> C 5.028457102803425 1.767643140226305 3.3146853046190796
| 33> H 3.0271430265172135 1.1935581450790818 3.86630796094266
| 34> H 3.6116738750814057 2.5702363997959874 4.826628079521586
| 35> H 5.548565610870865 1.1120457857533892 4.215661425202737
| 36> H 5.256037352552278 2.1343936518891358 3.2739830625641018
| 37> H 6.253953061926562 0.6002088283403583 1.8725713774998491
| 38> H 4.5851637637966824 0.031133162887493793 2.1185085192466095
| 39> C -4.218606943721466 -4.556681335113032 -0.7138571836239764
| 40> H -5.361254353465516 -3.556161975611438 0.8160274233280435
| 41> H -3.6163021118827388 -3.342736632488531 0.9871544193780832
| 42> H -5.026468812537821 -4.563950398014974 -1.4388995279384817
| 43> H -4.291529589156708 -5.4979736964445705 -0.14190654612837794
| 44> H -2.0447225175357913 -4.519643545614118 -0.7525662119818735
| 45> H -2.787258736255753 -5.486256736344901 -2.0310702860110954
| 46> *
| 47>
| 48> % eprnmr
| 49> gtensor true
| 50> Nuclei = all H {aiso,adip,aorb,fgrad,rho}
| 51> Nuclei = all V {aiso,adip,aorb,fgrad,rho}
| 52> end
| 53>
| 54>                          ****END OF INPUT****

CARTESIAN COORDINATES (ANGSTROEM)
---------------------------------
  V     -0.224312    0.804466   -0.741143
  S     -2.346463    0.113060    0.270776
  S      0.251207    1.872210    1.410936
  S     -0.394989   -1.350813   -1.892125
  S      2.198024    0.431843   -0.771924
  O     -0.550920    1.953561   -1.800452
  C      2.002482    2.115147    1.392934
  C      2.814206    1.513317    0.483513
  C     -2.895457   -1.215999   -0.757463
  C     -2.082033   -1.826505   -1.659453
  S      2.629389    3.198185    2.692320
  S      4.605267    1.729799    0.483745
  S     -2.626847   -3.207761   -2.684382
  S     -4.606939   -1.721966   -0.490452
  C      5.113894    0.890654    2.048009
  C     -2.880676   -4.559946   -1.452803
  C      3.577721    2.034720    3.767553
  C     -4.429219   -3.398794    0.261380
  C      5.028279    1.768542    3.313931
  H      3.026964    1.194457    3.865554
  H      3.611495    2.571135    4.825874
  H      5.548387    1.112945    4.214907
  H      5.255859    2.135292    3.273229
  H      6.253774    0.601108    1.871817
  H      4.584985    0.032032    2.117755
  C     -4.218786   -4.555783   -0.714611
  H     -5.361433   -3.555263    0.815273
  H     -3.616481   -3.341838    0.986400
  H     -5.026647   -4.563052   -1.439654
  H     -4.291708   -5.497075   -0.142661
  H     -2.044901   -4.518745   -0.753320
  H     -2.787437   -5.485358   -2.031824

 Total Charge           Charge          ....   -2
 Multiplicity           Mult            ....    2
 Number of Electrons    NEL             ....  233
 Basis Dimension        Dim             ....  517

ORBITAL ENERGIES
----------------
                 SPIN UP ORBITALS
  NO   OCC          E(Eh)            E(eV)
   0   1.0000    -196.640503     -5350.8601
   1   1.0000     -88.677500     -2413.0375
   2   1.0000     -88.677441     -2413.0358
   3   1.0000     -88.676689     -2413.0154
   4   1.0000     -88.676658     -2413.0145
   5   1.0000     -88.612681     -2411.2736
   6   1.0000     -88.612600     -2411.2714
   7   1.0000     -88.612269     -2411.2624
   8   1.0000     -88.612227     -2411.2613
   9   1.0000     -22.016320      -599.0945
  10   1.0000     -18.857643      -513.1425
  11   1.0000     -18.523147      -504.0405
  12   1.0000     -18.517366      -503.8831
  13   1.0000     -18.517331      -503.8822
  14   1.0000     -10.101326      -274.8711
  15   1.0000     -10.020615      -272.6748
  16   1.0000     -10.020267      -272.6653
  17   1.0000     -10.015453      -272.5343
  18   1.0000     -10.015438      -272.5339
  19   1.0000     -10.003998      -272.2226
  20   1.0000      -9.992678      -271.9146
  21   1.0000      -9.992111      -271.8992
  22   1.0000      -9.991957      -271.8950
  23   1.0000      -9.991397      -271.8797
  24   1.0000      -7.731152      -210.3753
  25   1.0000      -7.731090      -210.3736
  26   1.0000      -7.730337      -210.3532
  27   1.0000      -7.730318      -210.3526
  28   1.0000      -7.667087      -208.6321
  29   1.0000      -7.667040      -208.6308
  30   1.0000      -7.666723      -208.6221
  31   1.0000      -7.666663      -208.6205
  32   1.0000      -5.696426      -155.0076
  33   1.0000      -5.696361      -155.0059
  34   1.0000      -5.695578      -154.9846
  35   1.0000      -5.695566      -154.9842
  36   1.0000      -5.692458      -154.8997
  37   1.0000      -5.692402      -154.8981
  38   1.0000      -5.691691      -154.8788
  39   1.0000      -5.691669      -154.8782
  40   1.0000      -5.685905      -154.7213
  41   1.0000      -5.685842      -154.7196
  42   1.0000      -5.685089      -154.6991
  43   1.0000      -5.685070      -154.6986
  44   1.0000      -5.631938      -153.2528
  45   1.0000      -5.631881      -153.2513
  46   1.0000      -5.631548      -153.2422
  47   1.0000      -5.631510      -153.2412
  48   1.0000      -5.625527      -153.0784
  49   1.0000      -5.625469      -153.0768
  50   1.0000      -5.625156      -153.0683
  51   1.0000      -5.625101      -153.0668
  52   1.0000      -5.625083      -153.0663
  53   1.0000      -5.625040      -153.0651
  54   1.0000      -5.624704      -153.0560
  55   1.0000      -5.624649      -153.0545
  56   1.0000      -2.410021       -65.5800
  57   1.0000      -1.451387       -39.4943
  58   1.0000      -1.439798       -39.1789
  59   1.0000      -1.438726       -39.1497
  60   1.0000      -0.662235       -18.0203
  61   1.0000      -0.644135       -17.5278
  62   1.0000      -0.618680       -16.8351
  63   1.0000      -0.605958       -16.4890
  64   1.0000      -0.593934       -16.1618
  65   1.0000      -0.576461       -15.6863
  66   1.0000      -0.576086       -15.6761
  67   1.0000      -0.518498       -14.1091
  68   1.0000      -0.490988       -13.3605
  69   1.0000      -0.487490       -13.2653
  70   1.0000      -0.485884       -13.2216
  71   1.0000      -0.447986       -12.1903
  72   1.0000      -0.422950       -11.5090
  73   1.0000      -0.420028       -11.4295
  74   1.0000      -0.410833       -11.1793
  75   1.0000      -0.389354       -10.5949
  76   1.0000      -0.375114       -10.2074
  77   1.0000      -0.296787        -8.0760
  78   1.0000      -0.293124        -7.9763
  79   1.0000      -0.277687        -7.5562
  80   1.0000      -0.269733        -7.3398
  81   1.0000      -0.265676        -7.2294
  82   1.0000      -0.258695        -7.0395
  83   1.0000      -0.244796        -6.6612
  84   1.0000      -0.241478        -6.5710
  85   1.0000      -0.240080        -6.5329
  86   1.0000      -0.194835        -5.3017
  87   1.0000      -0.192207        -5.2302
  88   1.0000      -0.185163        -5.0385
  89   1.0000      -0.183532        -4.9941
  90   1.0000      -0.182339        -4.9617
  91   1.0000      -0.177688        -4.8351
  92   1.0000      -0.151069        -4.1108
  93   1.0000      -0.150916        -4.1066
  94   1.0000      -0.149187        -4.0596
  95   1.0000      -0.144476        -3.9314
  96   1.0000      -0.143089        -3.8936
  97   1.0000      -0.097773        -2.6605
  98   1.0000      -0.096754        -2.6328
  99   1.0000      -0.089841        -2.4447
 100   1.0000      -0.083692        -2.2774
 101   1.0000      -0.081828        -2.2266
 102   1.0000      -0.080638        -2.1943
 103   1.0000      -0.070178        -1.9096
 104   1.0000      -0.050431        -1.3723
 105   1.0000      -0.038754        -1.0545
 106   1.0000      -0.038465        -1.0467
 107   1.0000      -0.036245        -0.9863
 108   1.0000      -0.032689        -0.8895
 109   1.0000      -0.013597        -0.3700
 110   1.0000      -0.004797        -0.1305
 111   1.0000      -0.003877        -0.1055
 112   1.0000       0.005763         0.1568
 113   1.0000       0.010164         0.2766
 114   1.0000       0.015838         0.4310
 115   1.0000       0.033133         0.9016
 116   1.0000       0.059303         1.6137
 117   0.0000       0.187609         5.1051
 118   0.0000       0.187711         5.1079
 119   0.0000       0.195218         5.3121
 120   0.0000       0.196345         5.3428
 121   0.0000       0.210892         5.7387

                 SPIN DOWN ORBITALS
  NO   OCC          E(Eh)            E(eV)
   0   1.0000    -196.640644     -5350.8640
   1   1.0000     -88.677514     -2413.0378
   2   1.0000     -88.677454     -2413.0362
   3   1.0000     -88.676702     -2413.0157
   4   1.0000     -88.676671     -2413.0149
   5   1.0000     -88.612840     -2411.2780
   6   1.0000     -88.612760     -2411.2758
   7   1.0000     -88.612430     -2411.2668
   8   1.0000     -88.612388     -2411.2657
   9   1.0000     -22.001648      -598.6953
  10   1.0000     -18.861221      -513.2399
  11   1.0000     -18.518015      -503.9008
  12   1.0000     -18.501872      -503.4615
  13   1.0000     -18.501193      -503.4431
  14   1.0000     -10.101326      -274.8711
  15   1.0000     -10.020611      -272.6747
  16   1.0000     -10.020264      -272.6652
  17   1.0000     -10.015449      -272.5342
  18   1.0000     -10.015434      -272.5338
  19   1.0000     -10.003998      -272.2226
  20   1.0000      -9.992424      -271.9077
  21   1.0000      -9.991857      -271.8922
  22   1.0000      -9.991705      -271.8881
  23   1.0000      -9.991145      -271.8729
  24   1.0000      -7.731166      -210.3757
  25   1.0000      -7.731104      -210.3740
  26   1.0000      -7.730351      -210.3535
  27   1.0000      -7.730332      -210.3530
  28   1.0000      -7.667236      -208.6361
  29   1.0000      -7.667188      -208.6348
  30   1.0000      -7.666872      -208.6262
  31   1.0000      -7.666812      -208.6246
  32   1.0000      -5.696443      -155.0081
  33   1.0000      -5.696378      -155.0063
  34   1.0000      -5.695595      -154.9850
  35   1.0000      -5.695583      -154.9847
  36   1.0000      -5.692478      -154.9002
  37   1.0000      -5.692422      -154.8987
  38   1.0000      -5.691712      -154.8793
  39   1.0000      -5.691689      -154.8787
  40   1.0000      -5.685922      -154.7218
  41   1.0000      -5.685859      -154.7201
  42   1.0000      -5.685106      -154.6996
  43   1.0000      -5.685088      -154.6991
  44   1.0000      -5.632109      -153.2575
  45   1.0000      -5.632052      -153.2559
  46   1.0000      -5.631719      -153.2469
  47   1.0000      -5.631682      -153.2458
  48   1.0000      -5.625916      -153.0890
  49   1.0000      -5.625860      -153.0874
  50   1.0000      -5.625549      -153.0790
  51   1.0000      -5.625495      -153.0775
  52   1.0000      -5.625219      -153.0700
  53   1.0000      -5.625175      -153.0688
  54   1.0000      -5.624840      -153.0597
  55   1.0000      -5.624784      -153.0582
  56   1.0000      -2.365828       -64.3774
  57   1.0000      -1.432551       -38.9817
  58   1.0000      -1.378379       -37.5076
  59   1.0000      -1.377735       -37.4901
  60   1.0000      -0.662218       -18.0199
  61   1.0000      -0.644085       -17.5265
  62   1.0000      -0.626328       -17.0433
  63   1.0000      -0.605771       -16.4839
  64   1.0000      -0.593736       -16.1564
  65   1.0000      -0.576455       -15.6862
  66   1.0000      -0.576081       -15.6760
  67   1.0000      -0.518474       -14.1084
  68   1.0000      -0.491019       -13.3613
  69   1.0000      -0.487497       -13.2655
  70   1.0000      -0.485908       -13.2222
  71   1.0000      -0.448050       -12.1921
  72   1.0000      -0.423192       -11.5156
  73   1.0000      -0.420334       -11.4379
  74   1.0000      -0.410880       -11.1806
  75   1.0000      -0.389367       -10.5952
  76   1.0000      -0.375119       -10.2075
  77   1.0000      -0.296759        -8.0752
  78   1.0000      -0.293106        -7.9758
  79   1.0000      -0.277667        -7.5557
  80   1.0000      -0.269676        -7.3383
  81   1.0000      -0.265656        -7.2289
  82   1.0000      -0.258583        -7.0364
  83   1.0000      -0.244632        -6.6568
  84   1.0000      -0.241457        -6.5704
  85   1.0000      -0.239996        -6.5306
  86   1.0000      -0.194529        -5.2934
  87   1.0000      -0.192170        -5.2292
  88   1.0000      -0.184985        -5.0337
  89   1.0000      -0.182309        -4.9609
  90   1.0000      -0.182114        -4.9556
  91   1.0000      -0.176909        -4.8139
  92   1.0000      -0.150633        -4.0989
  93   1.0000      -0.150379        -4.0920
  94   1.0000      -0.148938        -4.0528
  95   1.0000      -0.144275        -3.9259
  96   1.0000      -0.142922        -3.8891
  97   1.0000      -0.096268        -2.6196
  98   1.0000      -0.096219        -2.6182
  99   1.0000      -0.089992        -2.4488
 100   1.0000      -0.083677        -2.2770
 101   1.0000      -0.082510        -2.2452
 102   1.0000      -0.081379        -2.2144
 103   1.0000      -0.071469        -1.9448
 104   1.0000      -0.046299        -1.2599
 105   1.0000      -0.038752        -1.0545
 106   1.0000      -0.037917        -1.0318
 107   1.0000      -0.035201        -0.9579
 108   1.0000      -0.032658        -0.8887
 109   1.0000      -0.012691        -0.3453
 110   1.0000      -0.006133        -0.1669
 111   1.0000      -0.002869        -0.0781
 112   1.0000       0.006610         0.1799
 113   1.0000       0.011061         0.3010
 114   1.0000       0.033385         0.9085
 115   1.0000       0.058511         1.5922
 116   0.0000       0.184781         5.0282
 117   0.0000       0.187805         5.1104
 118   0.0000       0.188825         5.1382
 119   0.0000       0.195783         5.3275
 120   0.0000       0.196531         5.3479

MULLIKEN ATOMIC CHARGES AND SPIN POPULATIONS
--------------------------------------------
   0 V :    0.447400    1.199348
   1 S :   -0.253670   -0.024274
   2 S :   -0.253118   -0.024034
   3 S :   -0.253917   -0.024218
   4 S :   -0.253315   -0.023936
   5 O :   -0.506377   -0.138838
   6 C :   -0.121281    0.008854
   7 C :   -0.120120    0.008845
   8 C :   -0.115965    0.008921
   9 C :   -0.116312    0.008864
  10 S :   -0.047351   -0.000156
  11 S :   -0.047121   -0.000190
  12 S :   -0.044657   -0.000195
  13 S :   -0.044841   -0.000226
  14 C :   -0.340068    0.000362
  15 C :   -0.338411    0.000298
  16 C :   -0.339742    0.000347
  17 C :   -0.338122    0.000319
  18 C :   -0.100543   -0.000703
  19 H :    0.170740   -0.000097
  20 H :    0.070377    0.000013
  21 H :    0.004627    0.000079
  22 H :    0.163966    0.000674
  23 H :    0.069820    0.000015
  24 H :    0.170861   -0.000099
  25 C :   -0.084272    0.000137
  26 H :    0.101339    0.000029
  27 H :    0.147217   -0.000109
  28 H :    0.080799    0.000012
  29 H :    0.043449    0.000035
  30 H :    0.147335   -0.000105
  31 H :    0.101273    0.000027
Sum of atomic charges         :   -2.0000000

LOEWDIN ATOMIC CHARGES AND SPIN POPULATIONS
-------------------------------------------
   0 V :   -0.242762    1.153305
   1 S :    0.088149   -0.016464
   2 S :    0.088290   -0.016250
   3 S :    0.087933   -0.016401
   4 S :    0.088044   -0.016208
   5 O :   -0.350823   -0.124280
   6 C :   -0.554135    0.009985
   7 C :   -0.553597    0.009940
   8 C :   -0.552654    0.009956
   9 C :   -0.553037    0.009977
  10 S :    0.339402   -0.001026
  11 S :    0.339267   -0.001046
  12 S :    0.336763   -0.001043
  13 S :    0.336691   -0.001058
  14 C :   -0.242093    0.000173
  15 C :   -0.293348    0.000169
  16 C :   -0.241790    0.000165
  17 C :   -0.293430    0.000179
  18 C :    0.097007   -0.000034
  19 H :    0.047981   -0.000012
  20 H :    0.056498    0.000001
  21 H :    0.080234    0.000031
  22 H :   -0.354819   -0.000002
  23 H :    0.056561    0.000002
  24 H :    0.048433   -0.000013
  25 C :   -0.184054   -0.000040
  26 H :    0.047433    0.000010
  27 H :    0.065598   -0.000027
  28 H :    0.052184    0.000011
  29 H :    0.047012    0.000018
  30 H :    0.065651   -0.000027
  31 H :    0.047411    0.000009

  Mayer bond orders larger than 0.100000
B(  0-V ,  1-S ) :   0.7891 B(  0-V ,  2-S ) :   0.7896 B(  0-V ,  3-S ) :   0.7912
B(  0-V ,  4-S ) :   0.7871 B(  0-V ,  5-O ) :   2.1083 B(  1-S ,  8-C ) :   1.1379
B(  2-S ,  6-C ) :   1.1381 B(  3-S ,  9-C ) :   1.1367 B(  4-S ,  7-C ) :   1.1393
B(  6-C ,  7-C ) :   1.5126 B(  6-C , 10-S ) :   0.9538 B(  7-C , 11-S ) :   0.9540
B(  8-C ,  9-C ) :   1.5180 B(  8-C , 13-S ) :   0.9535 B(  9-C , 12-S ) :   0.9537
B( 10-S , 16-C ) :   0.9940 B( 11-S , 14-C ) :   0.9940 B( 12-S , 15-C ) :   1.0054
B( 13-S , 17-C ) :   1.0056 B( 14-C , 18-C ) :   0.8979 B( 14-C , 23-H ) :   0.9678
B( 14-C , 24-H ) :   0.9804 B( 15-C , 25-C ) :   0.8774 B( 15-C , 30-H ) :   0.9754
B( 15-C , 31-H ) :   0.9701 B( 16-C , 18-C ) :   0.8975 B( 16-C , 19-H ) :   0.9806
B( 16-C , 20-H ) :   0.9679 B( 17-C , 25-C ) :   0.8774 B( 17-C , 26-H ) :   0.9701
B( 17-C , 27-H ) :   0.9753 B( 18-C , 21-H ) :   1.0305 B( 18-C , 22-H ) :   0.8961
B( 25-C , 28-H ) :   0.9748 B( 25-C , 29-H ) :   0.9528

FINAL SINGLE POINT ENERGY     -4591.286927555085

DIPOLE MOMENT
-------------
                                X             Y             Z
Electronic contribution:     -5.34600      19.61175     -17.97251
Nuclear contribution   :      5.87169     -21.84169      19.94353
                        -----------------------------------------
Total Dipole Moment    :      0.52570      -2.22994       1.97102
                        -----------------------------------------
Magnitude (a.u.)       :      3.02223
Magnitude (Debye)      :      7.68190

Rotational constants in cm-1:     0.012771     0.002549     0.002431
Rotational constants in MHz :   382.871156    76.409572    72.889016

                             ****ORCA TERMINATED NORMALLY****
TOTAL RUN TIME: 0 days 0 hours 42 minutes 53 seconds 112 msec
