                         Program Version 5.0.4 -  RELEASE  -
|  1> ! nofrozencore ReducedPop printbasis
|  2> ! B3LYP TZVP
|  3>
|  4> %basis
|  5> newgto V "CP(PPP)" end
|  6> end
|  7>
|  8> %pal
|  9> nprocs 8
| 10> end
| 11>
| 12> % sym SymThresh 1e-2 end
| 13> * xyz -2 2
| 14> V 0.8638866840109848 -0.7048723293763803 0.031446910452708705
| 15> S -0.704567077863301 -1.372268799397851 1.7921290488074093
| 16> S -0.7879338254108335 -1.6048400418136333 -1.5367297796418427
| 17> S 1.3477163787136504 1.1499472146050007 1.5561061018655395
| 18> S 1.2884285371926192 0.897594891373166 -1.7739246221915637
| 19> O 2.0985213231440873 -1.716002794183887 0.08162497348654853
| 20> C -0.35023720756367177 -0.87651412424305 -3.087354260573678
| 21> C 0.5143346609666114 0.16766936689331802 -3.185853389409022
| 22> C -0.1964682587961419 -0.4262585464639232 3.196206395262527
| 23> C 0.6595898851990852 0.6257459335775968 3.0980849079061983
| 24> S -1.1630846022695682 -1.6074306330153483 -4.522614619883428
| 25> S 0.9361229358137051 0.937059884773047 -4.762383762748615
| 26> S 1.151814774811799 1.6173083270090989 4.522673035959406
| 27> S -0.9298222553083715 -0.9422281693913283 4.762157028820524
| 28> C -0.6535248275038917 1.727738937980548 -5.273179713522749
| 29> C -0.4016606941649304 2.472728243860892 5.02230799849786
| 30> C -2.29283490170163 -0.25979914626261796 -5.088031312044875
| 31> C -2.0403206065359463 0.4574007750170373 5.2112105885850175
| 32> C -1.665031497028668 0.8185849625878285 -5.970585061500888
| 33> H -2.735583772651027 0.16336979050206749 -4.223299739287479
| 34> H -3.090062124459701 -0.7827288867872533 -5.657842197631743
| 35> H -2.4768333815256978 1.4519612423632777 -6.358636540748013
| 36> H -1.1840817667389292 0.3403364190722251 -6.8457537220620575
| 37> H -0.35220440973481204 2.5415330826934355 -5.966262618200457
| 38> H -1.0737762532954114 2.175499391981801 -4.4092154284375455
| 39> C -1.379381354881058 1.664529138929828 5.8701606578081
| 40> H -2.6922888963375176 0.09971326478819556 5.760270002263088
| 41> H -2.6908989465373083 0.8480193622905747 3.9929325761787777
| 42> H -0.9195675600150941 1.3657268435854084 6.666211455547081
| 43> H -2.1959919696167347 2.359114866773374 6.19851957886564
| 44> H -1.0321068168368115 2.891422068320068 3.794305829399718
| 45> H -0.14131440129409162 3.237781483609626 5.46244546626944
| 46> *
| 47>
| 48> % eprnmr
| 49> gtensor true
| 50> Nuclei = all H {aiso,adip,aorb,fgrad,rho}
| 51> Nuclei = all V {aiso,adip,aorb,fgrad,rho}
| 52> end
| 53>
| 54>                          ****END OF INPUT****

CARTESIAN COORDINATES (ANGSTROEM)
---------------------------------
  V      0.864798   -0.705631    0.031400
  S     -0.703656   -1.373028    1.792082
  S     -0.787023   -1.605599   -1.536777
  S      1.348627    1.149188    1.556059
  S      1.289340    0.896836   -1.773972
  O      2.099432   -1.716762    0.081578
  C     -0.349326   -0.877273   -3.087402
  C      0.515246    0.166910   -3.185901
  C     -0.195557   -0.427018    3.196159
  C      0.660501    0.624987    3.098038
  S     -1.162174   -1.608190   -4.522662
  S      0.937034    0.936301   -4.762431
  S      1.152726    1.616549    4.522626
  S     -0.928911   -0.942987    4.762110
  C     -0.652614    1.726980   -5.273227
  C     -0.400750    2.471969    5.022261
  C     -2.291924   -0.260558   -5.088079
  C     -2.039410    0.456642    5.211163
  C     -1.664120    0.817826   -5.970632
  H     -2.734673    0.162611   -4.223347
  H     -3.089151   -0.783488   -5.657890
  H     -2.475922    1.451202   -6.358684
  H     -1.183171    0.339577   -6.845801
  H     -0.351293    2.540774   -5.966310
  H     -1.072865    2.174740   -4.409263
  C     -1.378470    1.663770    5.870113
  H     -2.691378    0.098954    5.760223
  H     -2.689988    0.847260    3.992885
  H     -0.918656    1.364968    6.666164
  H     -2.195081    2.358356    6.198472
  H     -1.031196    2.890663    3.794258
  H     -0.140403    3.237022    5.462398

 Total Charge           Charge          ....   -2
 Multiplicity           Mult            ....    2
 Number of Electrons    NEL             ....  233
 Basis Dimension        Dim             ....  517

ORBITAL ENERGIES
----------------
                 SPIN UP ORBITALS
  NO   OCC          E(Eh)            E(eV)
   0   1.0000    -196.640440     -5350.8584
   1   1.0000     -88.679151     -2413.0824
   2   1.0000     -88.679110     -2413.0813
   3   1.0000     -88.676364     -2413.0065
   4   1.0000     -88.676324     -2413.0055
   5   1.0000     -88.612571     -2411.2706
   6   1.0000     -88.612464     -2411.2677
   7   1.0000     -88.611994     -2411.2549
   8   1.0000     -88.611884     -2411.2520
   9   1.0000     -22.016236      -599.0922
  10   1.0000     -18.857386      -513.1356
  11   1.0000     -18.523059      -504.0381
  12   1.0000     -18.517287      -503.8810
  13   1.0000     -18.517251      -503.8800
  14   1.0000     -10.022877      -272.7363
  15   1.0000     -10.022841      -272.7354
  16   1.0000     -10.013853      -272.4908
  17   1.0000     -10.013800      -272.4894
  18   1.0000     -10.005270      -272.2572
  19   1.0000      -9.997561      -272.0475
  20   1.0000      -9.992593      -271.9123
  21   1.0000      -9.991883      -271.8930
  22   1.0000      -9.991783      -271.8903
  23   1.0000      -9.991060      -271.8706
  24   1.0000      -7.732713      -210.4178
  25   1.0000      -7.732654      -210.4162
  26   1.0000      -7.730014      -210.3444
  27   1.0000      -7.729959      -210.3429
  28   1.0000      -7.666964      -208.6287
  29   1.0000      -7.666883      -208.6265
  30   1.0000      -7.666408      -208.6136
  31   1.0000      -7.666352      -208.6120
  32   1.0000      -5.697947      -155.0490
  33   1.0000      -5.697888      -155.0474
  34   1.0000      -5.695257      -154.9758
  35   1.0000      -5.695210      -154.9745
  36   1.0000      -5.694009      -154.9419
  37   1.0000      -5.693955      -154.9404
  38   1.0000      -5.691371      -154.8701
  39   1.0000      -5.691321      -154.8687
  40   1.0000      -5.687569      -154.7666
  41   1.0000      -5.687513      -154.7651
  42   1.0000      -5.684757      -154.6901
  43   1.0000      -5.684700      -154.6885
  44   1.0000      -5.631853      -153.2505
  45   1.0000      -5.631768      -153.2482
  46   1.0000      -5.631245      -153.2340
  47   1.0000      -5.631172      -153.2320
  48   1.0000      -5.625394      -153.0747
  49   1.0000      -5.625314      -153.0726
  50   1.0000      -5.624911      -153.0616
  51   1.0000      -5.624868      -153.0604
  52   1.0000      -5.624817      -153.0591
  53   1.0000      -5.624781      -153.0581
  54   1.0000      -5.624391      -153.0474
  55   1.0000      -5.624339      -153.0461
  56   1.0000      -2.409915       -65.5771
  57   1.0000      -1.451257       -39.4907
  58   1.0000      -1.439705       -39.1764
  59   1.0000      -1.438622       -39.1469
  60   1.0000      -0.648248       -17.6397
  61   1.0000      -0.644027       -17.5249
  62   1.0000      -0.618472       -16.8295
  63   1.0000      -0.597563       -16.2605
  64   1.0000      -0.593537       -16.1510
  65   1.0000      -0.580482       -15.7957
  66   1.0000      -0.576156       -15.6780
  67   1.0000      -0.495634       -13.4869
  68   1.0000      -0.493478       -13.4282
  69   1.0000      -0.490139       -13.3374
  70   1.0000      -0.487198       -13.2573
  71   1.0000      -0.427076       -11.6213
  72   1.0000      -0.421441       -11.4680
  73   1.0000      -0.419043       -11.4027
  74   1.0000      -0.409999       -11.1566
  75   1.0000      -0.378094       -10.2885
  76   1.0000      -0.374296       -10.1851
  77   1.0000      -0.301362        -8.2005
  78   1.0000      -0.291765        -7.9393
  79   1.0000      -0.282144        -7.6775
  80   1.0000      -0.277087        -7.5399
  81   1.0000      -0.262160        -7.1337
  82   1.0000      -0.253388        -6.8950
  83   1.0000      -0.241701        -6.5770
  84   1.0000      -0.213581        -5.8118
  85   1.0000      -0.199872        -5.4388
  86   1.0000      -0.197678        -5.3791
  87   1.0000      -0.193265        -5.2590
  88   1.0000      -0.190245        -5.1768
  89   1.0000      -0.184733        -5.0268
  90   1.0000      -0.183125        -4.9831
  91   1.0000      -0.177921        -4.8415
  92   1.0000      -0.150970        -4.1081
  93   1.0000      -0.148444        -4.0394
  94   1.0000      -0.143811        -3.9133
  95   1.0000      -0.136773        -3.7218
  96   1.0000      -0.126385        -3.4391
  97   1.0000      -0.097597        -2.6558
  98   1.0000      -0.095493        -2.5985
  99   1.0000      -0.089868        -2.4454
 100   1.0000      -0.083699        -2.2776
 101   1.0000      -0.081635        -2.2214
 102   1.0000      -0.080455        -2.1893
 103   1.0000      -0.069988        -1.9045
 104   1.0000      -0.050491        -1.3739
 105   1.0000      -0.038657        -1.0519
 106   1.0000      -0.038026        -1.0347
 107   1.0000      -0.036193        -0.9849
 108   1.0000      -0.032035        -0.8717
 109   1.0000      -0.013693        -0.3726
 110   1.0000      -0.004585        -0.1248
 111   1.0000      -0.003755        -0.1022
 112   1.0000       0.006103         0.1661
 113   1.0000       0.010215         0.2780
 114   1.0000       0.015966         0.4345
 115   1.0000       0.033617         0.9148
 116   1.0000       0.059847         1.6285
 117   0.0000       0.185272         5.0415
 118   0.0000       0.186430         5.0730
 119   0.0000       0.192527         5.2389
 120   0.0000       0.196116         5.3366
 121   0.0000       0.209536         5.7018

                 SPIN DOWN ORBITALS
  NO   OCC          E(Eh)            E(eV)
   0   1.0000    -196.640581     -5350.8623
   1   1.0000     -88.679164     -2413.0827
   2   1.0000     -88.679124     -2413.0816
   3   1.0000     -88.676377     -2413.0069
   4   1.0000     -88.676338     -2413.0058
   5   1.0000     -88.612728     -2411.2749
   6   1.0000     -88.612622     -2411.2720
   7   1.0000     -88.612154     -2411.2593
   8   1.0000     -88.612044     -2411.2563
   9   1.0000     -22.001566      -598.6931
  10   1.0000     -18.860961      -513.2328
  11   1.0000     -18.517928      -503.8984
  12   1.0000     -18.501799      -503.4595
  13   1.0000     -18.501112      -503.4409
  14   1.0000     -10.022872      -272.7362
  15   1.0000     -10.022837      -272.7352
  16   1.0000     -10.013850      -272.4907
  17   1.0000     -10.013797      -272.4893
  18   1.0000     -10.005270      -272.2572
  19   1.0000      -9.997561      -272.0475
  20   1.0000      -9.992339      -271.9054
  21   1.0000      -9.991631      -271.8861
  22   1.0000      -9.991529      -271.8833
  23   1.0000      -9.990807      -271.8637
  24   1.0000      -7.732727      -210.4182
  25   1.0000      -7.732668      -210.4166
  26   1.0000      -7.730028      -210.3447
  27   1.0000      -7.729973      -210.3433
  28   1.0000      -7.667110      -208.6327
  29   1.0000      -7.667029      -208.6305
  30   1.0000      -7.666557      -208.6176
  31   1.0000      -7.666500      -208.6161
  32   1.0000      -5.697963      -155.0495
  33   1.0000      -5.697905      -155.0479
  34   1.0000      -5.695274      -154.9763
  35   1.0000      -5.695227      -154.9750
  36   1.0000      -5.694029      -154.9424
  37   1.0000      -5.693976      -154.9410
  38   1.0000      -5.691391      -154.8706
  39   1.0000      -5.691341      -154.8693
  40   1.0000      -5.687585      -154.7671
  41   1.0000      -5.687529      -154.7655
  42   1.0000      -5.684774      -154.6906
  43   1.0000      -5.684716      -154.6890
  44   1.0000      -5.632023      -153.2551
  45   1.0000      -5.631937      -153.2528
  46   1.0000      -5.631417      -153.2386
  47   1.0000      -5.631344      -153.2367
  48   1.0000      -5.625780      -153.0853
  49   1.0000      -5.625701      -153.0831
  50   1.0000      -5.625260      -153.0711
  51   1.0000      -5.625174      -153.0688
  52   1.0000      -5.625044      -153.0652
  53   1.0000      -5.624951      -153.0627
  54   1.0000      -5.624527      -153.0512
  55   1.0000      -5.624474      -153.0497
  56   1.0000      -2.365732       -64.3748
  57   1.0000      -1.432430       -38.9784
  58   1.0000      -1.378295       -37.5053
  59   1.0000      -1.377640       -37.4875
  60   1.0000      -0.648211       -17.6387
  61   1.0000      -0.643978       -17.5235
  62   1.0000      -0.626128       -17.0378
  63   1.0000      -0.597362       -16.2551
  64   1.0000      -0.593338       -16.1455
  65   1.0000      -0.580479       -15.7956
  66   1.0000      -0.576151       -15.6779
  67   1.0000      -0.495653       -13.4874
  68   1.0000      -0.493465       -13.4279
  69   1.0000      -0.490172       -13.3383
  70   1.0000      -0.487212       -13.2577
  71   1.0000      -0.427347       -11.6287
  72   1.0000      -0.421740       -11.4761
  73   1.0000      -0.419081       -11.4038
  74   1.0000      -0.410070       -11.1586
  75   1.0000      -0.378041       -10.2870
  76   1.0000      -0.374330       -10.1860
  77   1.0000      -0.301357        -8.2003
  78   1.0000      -0.291745        -7.9388
  79   1.0000      -0.282119        -7.6768
  80   1.0000      -0.277069        -7.5394
  81   1.0000      -0.262022        -7.1300
  82   1.0000      -0.253216        -6.8904
  83   1.0000      -0.241593        -6.5741
  84   1.0000      -0.213566        -5.8114
  85   1.0000      -0.199867        -5.4386
  86   1.0000      -0.197410        -5.3718
  87   1.0000      -0.193053        -5.2532
  88   1.0000      -0.190209        -5.1758
  89   1.0000      -0.184517        -5.0210
  90   1.0000      -0.181988        -4.9522
  91   1.0000      -0.176987        -4.8161
  92   1.0000      -0.150290        -4.0896
  93   1.0000      -0.148152        -4.0314
  94   1.0000      -0.143604        -3.9077
  95   1.0000      -0.136493        -3.7142
  96   1.0000      -0.126217        -3.4345
  97   1.0000      -0.096075        -2.6143
  98   1.0000      -0.095036        -2.5861
  99   1.0000      -0.089985        -2.4486
 100   1.0000      -0.083692        -2.2774
 101   1.0000      -0.082322        -2.2401
 102   1.0000      -0.081200        -2.2096
 103   1.0000      -0.071301        -1.9402
 104   1.0000      -0.046338        -1.2609
 105   1.0000      -0.038881        -1.0580
 106   1.0000      -0.037184        -1.0118
 107   1.0000      -0.035185        -0.9574
 108   1.0000      -0.032013        -0.8711
 109   1.0000      -0.012793        -0.3481
 110   1.0000      -0.005838        -0.1589
 111   1.0000      -0.002811        -0.0765
 112   1.0000       0.006925         0.1884
 113   1.0000       0.011120         0.3026
 114   1.0000       0.033880         0.9219
 115   1.0000       0.059055         1.6070
 116   0.0000       0.183271         4.9870
 117   0.0000       0.187109         5.0915
 118   0.0000       0.187537         5.1031
 119   0.0000       0.193609         5.2684
 120   0.0000       0.196284         5.3412

MULLIKEN ATOMIC CHARGES AND SPIN POPULATIONS
--------------------------------------------
   0 V :    0.447027    1.199121
   1 S :   -0.251666   -0.023867
   2 S :   -0.253346   -0.024280
   3 S :   -0.251869   -0.023814
   4 S :   -0.253595   -0.024182
   5 O :   -0.506135   -0.138762
   6 C :   -0.117669    0.008905
   7 C :   -0.115638    0.008886
   8 C :   -0.107354    0.008872
   9 C :   -0.107510    0.008805
  10 S :   -0.045418   -0.000166
  11 S :   -0.045273   -0.000201
  12 S :   -0.040193   -0.000145
  13 S :   -0.040350   -0.000177
  14 C :   -0.338066    0.000300
  15 C :   -0.360015    0.000185
  16 C :   -0.336432    0.000283
  17 C :   -0.359432    0.000210
  18 C :   -0.084083    0.000128
  19 H :    0.153605   -0.000101
  20 H :    0.095569    0.000020
  21 H :    0.045781    0.000039
  22 H :    0.076280    0.000016
  23 H :    0.095723    0.000021
  24 H :    0.154160   -0.000103
  25 C :   -0.093885    0.000216
  26 H :    0.170672    0.000028
  27 H :    0.078775   -0.000172
  28 H :    0.105396    0.000038
  29 H :    0.035345    0.000039
  30 H :    0.077031   -0.000168
  31 H :    0.172565    0.000026
Sum of atomic charges         :   -2.0000000

LOEWDIN ATOMIC CHARGES AND SPIN POPULATIONS
-------------------------------------------
   0 V :   -0.242536    1.153163
   1 S :    0.091297   -0.016155
   2 S :    0.088422   -0.016429
   3 S :    0.091113   -0.016098
   4 S :    0.088185   -0.016391
   5 O :   -0.350854   -0.124203
   6 C :   -0.553322    0.010005
   7 C :   -0.552675    0.009963
   8 C :   -0.549473    0.009906
   9 C :   -0.549888    0.009923
  10 S :    0.336878   -0.001024
  11 S :    0.336719   -0.001044
  12 S :    0.342750   -0.001013
  13 S :    0.342448   -0.001027
  14 C :   -0.290252    0.000165
  15 C :   -0.275439    0.000170
  16 C :   -0.290280    0.000157
  17 C :   -0.276847    0.000181
  18 C :   -0.184816   -0.000037
  19 H :    0.059492   -0.000022
  20 H :    0.049869    0.000004
  21 H :    0.046491    0.000017
  22 H :    0.054843    0.000012
  23 H :    0.049871    0.000005
  24 H :    0.059699   -0.000023
  25 C :   -0.168110   -0.000030
  26 H :    0.002335    0.000007
  27 H :    0.079789   -0.000113
  28 H :    0.031288    0.000015
  29 H :    0.053047    0.000020
  30 H :    0.079135   -0.000111
  31 H :    0.000823    0.000006

  Mayer bond orders larger than 0.100000
B(  0-V ,  1-S ) :   0.7865 B(  0-V ,  2-S ) :   0.7916 B(  0-V ,  3-S ) :   0.7885
B(  0-V ,  4-S ) :   0.7890 B(  0-V ,  5-O ) :   2.1077 B(  1-S ,  8-C ) :   1.1348
B(  2-S ,  6-C ) :   1.1369 B(  3-S ,  9-C ) :   1.1338 B(  4-S ,  7-C ) :   1.1380
B(  6-C ,  7-C ) :   1.5161 B(  6-C , 10-S ) :   0.9545 B(  7-C , 11-S ) :   0.9545
B(  8-C ,  9-C ) :   1.5305 B(  8-C , 13-S ) :   0.9444 B(  9-C , 12-S ) :   0.9444
B( 10-S , 16-C ) :   1.0047 B( 11-S , 14-C ) :   1.0047 B( 12-S , 15-C ) :   1.0076
B( 13-S , 17-C ) :   1.0079 B( 14-C , 18-C ) :   0.8777 B( 14-C , 23-H ) :   0.9701
B( 14-C , 24-H ) :   0.9767 B( 15-C , 25-C ) :   0.8784 B( 15-C , 30-H ) :   0.9510
B( 15-C , 31-H ) :   0.9587 B( 16-C , 18-C ) :   0.8781 B( 16-C , 19-H ) :   0.9767
B( 16-C , 20-H ) :   0.9701 B( 17-C , 25-C ) :   0.8783 B( 17-C , 26-H ) :   0.9593
B( 17-C , 27-H ) :   0.9515 B( 18-C , 21-H ) :   0.9527 B( 18-C , 22-H ) :   0.9740
B( 25-C , 28-H ) :   0.9675 B( 25-C , 29-H ) :   0.9527

FINAL SINGLE POINT ENERGY     -4592.584705458400

DIPOLE MOMENT
-------------
                                X             Y             Z
Electronic contribution:     21.08750     -17.09117       1.73704
Nuclear contribution   :    -23.30239      18.91534      -1.63383
                        -----------------------------------------
Total Dipole Moment    :     -2.21489       1.82417       0.10321
                        -----------------------------------------
Magnitude (a.u.)       :      2.87124
Magnitude (Debye)      :      7.29810

Rotational constants in cm-1:     0.012771     0.002548     0.002431
Rotational constants in MHz :   382.879229    76.386580    72.879683

                             ****ORCA TERMINATED NORMALLY****
TOTAL RUN TIME: 0 days 0 hours 27 minutes 23 seconds 77 msec
