                         Program Version 5.0.4 -  RELEASE  -
|  1> ! nofrozencore ReducedPop printbasis
|  2> ! B3LYP TZVP
|  3>
|  4> %basis
|  5> newgto V "CP(PPP)" end
|  6> end
|  7>
|  8> %pal
|  9> nprocs 8
| 10> end
| 11>
| 12> % sym SymThresh 1e-2 end
| 13> * xyz -2 2
| 14> V -0.12233602347847289 -0.48770731166572345 0.9956653715924176
| 15> S 1.1036940770832602 -2.042657249765104 -0.4481431248389193
| 16> S 1.9472255537166354 0.8207666854363548 1.0452497385078658
| 17> S -2.027674745500959 -1.1350446766512532 -0.40068991708461155
| 18> S -1.1868747751653397 1.716484162318318 1.1214046722029503
| 19> O -0.29555000030362116 -1.1909080992203647 2.418515024341769
| 20> C 1.4265493472595494 2.4251791534213507 1.582202026432736
| 21> C 0.12608079037489323 2.7971015662211527 1.6123743606565493
| 22> C -0.17548212720578407 -2.9740550335868052 -1.2462378652718444
| 23> C -1.4673701317404206 -2.599925191507469 -1.2267519208193443
| 24> S 2.7714949032940015 3.5326428772548626 2.0569860470484143
| 25> S -0.40713869135752195 4.444385864404222 2.1254832117101343
| 26> S -2.7705715716880563 -3.526554112507444 -2.070416968557978
| 27> S 0.40637133596828867 -4.447738804753017 -2.117855959667358
| 28> C 0.25833863153887116 5.526867202636086 0.7870361309223282
| 29> C -2.3437924813421285 -3.2975083873931696 -3.849657618984552
| 30> C 2.7312574898905555 4.819398274833626 0.7349800998342881
| 31> C 0.119557061948055 -4.012940782209705 -3.886432922492746
| 32> C 1.7123737620239359 5.922616130614333 0.9086567520741287
| 33> H 2.6414779974175184 4.310633296966236 -0.23045070583998548
| 34> H 3.7557618204037944 5.207563083970581 0.6787450861302741
| 35> H 1.9522196353867276 6.808370764363297 0.26396553520043925
| 36> H 1.9135947070470423 6.560146934612311 1.8004104177154312
| 37> H -0.4068753755937289 6.398825478679433 0.7635283047552206
| 38> H 0.028998442568635027 5.055718317384494 -0.17440075493096485
| 39> C -1.2785619664725691 -4.201252464011311 -4.39702857600854
| 40> H 0.880800509138494 -4.569719232869935 -4.453666276992473
| 41> H 0.5259962576709427 -3.0085042341131296 -4.070377271647499
| 42> H -1.5979290997838729 -5.293806525102521 -4.532673252854421
| 43> H -1.3368105158719255 -4.343454446356058 -5.538509887462694
| 44> H -2.152190590528912 -2.2302971829914746 -4.028736231820607
| 45> H -3.2996691016567854 -3.354813829113265 -4.391927914445306
| 46> *
| 47>
| 48> % eprnmr
| 49> gtensor true
| 50> Nuclei = all H {aiso,adip,aorb,fgrad,rho}
| 51> Nuclei = all V {aiso,adip,aorb,fgrad,rho}
| 52> end
| 53>
| 54>                          ****END OF INPUT****

CARTESIAN COORDINATES (ANGSTROEM)
---------------------------------
  V     -0.122439   -0.488157    0.996759
  S      1.103591   -2.043107   -0.447050
  S      1.947123    0.820317    1.046343
  S     -2.027778   -1.135494   -0.399596
  S     -1.186978    1.716034    1.122498
  O     -0.295653   -1.191358    2.419608
  C      1.426446    2.424729    1.583295
  C      0.125978    2.796652    1.613468
  C     -0.175585   -2.974505   -1.245144
  C     -1.467473   -2.600375   -1.225658
  S      2.771392    3.532193    2.058080
  S     -0.407242    4.443936    2.126577
  S     -2.770675   -3.527004   -2.069324
  S      0.406268   -4.448189   -2.116763
  C      0.258236    5.526417    0.788130
  C     -2.343896   -3.297958   -3.848564
  C      2.731154    4.818949    0.736074
  C      0.119454   -4.013391   -3.885339
  C      1.712271    5.922166    0.909750
  H      2.641375    4.310184   -0.229357
  H      3.755659    5.207113    0.679839
  H      1.952117    6.807921    0.265059
  H      1.913492    6.559697    1.801504
  H     -0.406978    6.398376    0.764622
  H      0.028895    5.055269   -0.173307
  C     -1.278665   -4.201702   -4.395935
  H      0.880697   -4.570169   -4.452573
  H      0.525893   -3.008954   -4.069284
  H     -1.598032   -5.294256   -4.531580
  H     -1.336914   -4.343904   -5.537416
  H     -2.152294   -2.230747   -4.027643
  H     -3.299772   -3.355264   -4.390834

 Total Charge           Charge          ....   -2
 Multiplicity           Mult            ....    2
 Number of Electrons    NEL             ....  233
 Basis Dimension        Dim             ....  517

ORBITAL ENERGIES
----------------
                 SPIN UP ORBITALS
  NO   OCC          E(Eh)            E(eV)
   0   1.0000    -196.639150     -5350.8233
   1   1.0000     -88.676957     -2413.0227
   2   1.0000     -88.676952     -2413.0225
   3   1.0000     -88.676594     -2413.0128
   4   1.0000     -88.676515     -2413.0106
   5   1.0000     -88.610970     -2411.2271
   6   1.0000     -88.610945     -2411.2264
   7   1.0000     -88.610938     -2411.2262
   8   1.0000     -88.610815     -2411.2229
   9   1.0000     -22.014950      -599.0572
  10   1.0000     -18.856177      -513.1026
  11   1.0000     -18.521787      -504.0034
  12   1.0000     -18.515992      -503.8457
  13   1.0000     -18.515957      -503.8448
  14   1.0000     -10.018550      -272.6186
  15   1.0000     -10.018511      -272.6176
  16   1.0000     -10.016598      -272.5655
  17   1.0000     -10.016567      -272.5647
  18   1.0000     -10.016530      -272.5636
  19   1.0000     -10.009239      -272.3652
  20   1.0000      -9.990710      -271.8610
  21   1.0000      -9.990248      -271.8485
  22   1.0000      -9.989954      -271.8405
  23   1.0000      -9.989453      -271.8268
  24   1.0000      -7.730580      -210.3598
  25   1.0000      -7.730569      -210.3595
  26   1.0000      -7.730213      -210.3498
  27   1.0000      -7.730150      -210.3481
  28   1.0000      -7.665414      -208.5865
  29   1.0000      -7.665389      -208.5859
  30   1.0000      -7.665304      -208.5835
  31   1.0000      -7.665215      -208.5811
  32   1.0000      -5.695848      -154.9919
  33   1.0000      -5.695845      -154.9918
  34   1.0000      -5.695480      -154.9819
  35   1.0000      -5.695425      -154.9804
  36   1.0000      -5.691951      -154.8859
  37   1.0000      -5.691944      -154.8857
  38   1.0000      -5.691570      -154.8755
  39   1.0000      -5.691504      -154.8737
  40   1.0000      -5.685270      -154.7041
  41   1.0000      -5.685259      -154.7038
  42   1.0000      -5.684928      -154.6948
  43   1.0000      -5.684862      -154.6930
  44   1.0000      -5.630262      -153.2072
  45   1.0000      -5.630249      -153.2069
  46   1.0000      -5.630198      -153.2055
  47   1.0000      -5.630108      -153.2030
  48   1.0000      -5.623847      -153.0327
  49   1.0000      -5.623816      -153.0318
  50   1.0000      -5.623767      -153.0305
  51   1.0000      -5.623650      -153.0273
  52   1.0000      -5.623367      -153.0196
  53   1.0000      -5.623351      -153.0192
  54   1.0000      -5.623234      -153.0160
  55   1.0000      -5.623143      -153.0135
  56   1.0000      -2.408624       -65.5420
  57   1.0000      -1.450008       -39.4567
  58   1.0000      -1.438381       -39.1403
  59   1.0000      -1.437320       -39.1115
  60   1.0000      -0.646166       -17.5831
  61   1.0000      -0.644693       -17.5430
  62   1.0000      -0.617282       -16.7971
  63   1.0000      -0.595411       -16.2020
  64   1.0000      -0.594183       -16.1686
  65   1.0000      -0.577415       -15.7123
  66   1.0000      -0.576383       -15.6842
  67   1.0000      -0.493617       -13.4320
  68   1.0000      -0.491430       -13.3725
  69   1.0000      -0.488041       -13.2803
  70   1.0000      -0.486857       -13.2480
  71   1.0000      -0.423867       -11.5340
  72   1.0000      -0.420866       -11.4523
  73   1.0000      -0.418791       -11.3959
  74   1.0000      -0.413270       -11.2457
  75   1.0000      -0.382032       -10.3956
  76   1.0000      -0.377016       -10.2591
  77   1.0000      -0.304967        -8.2986
  78   1.0000      -0.295897        -8.0518
  79   1.0000      -0.270439        -7.3590
  80   1.0000      -0.264807        -7.2058
  81   1.0000      -0.259331        -7.0568
  82   1.0000      -0.253620        -6.9014
  83   1.0000      -0.242661        -6.6032
  84   1.0000      -0.239676        -6.5219
  85   1.0000      -0.198002        -5.3879
  86   1.0000      -0.196645        -5.3510
  87   1.0000      -0.194323        -5.2878
  88   1.0000      -0.191564        -5.2127
  89   1.0000      -0.184488        -5.0202
  90   1.0000      -0.177761        -4.8371
  91   1.0000      -0.168924        -4.5967
  92   1.0000      -0.151098        -4.1116
  93   1.0000      -0.150468        -4.0945
  94   1.0000      -0.144248        -3.9252
  95   1.0000      -0.137057        -3.7295
  96   1.0000      -0.128332        -3.4921
  97   1.0000      -0.096078        -2.6144
  98   1.0000      -0.094539        -2.5725
  99   1.0000      -0.087899        -2.3918
 100   1.0000      -0.082029        -2.2321
 101   1.0000      -0.079680        -2.1682
 102   1.0000      -0.079269        -2.1570
 103   1.0000      -0.069160        -1.8819
 104   1.0000      -0.049981        -1.3601
 105   1.0000      -0.038432        -1.0458
 106   1.0000      -0.037710        -1.0261
 107   1.0000      -0.035266        -0.9596
 108   1.0000      -0.032086        -0.8731
 109   1.0000      -0.012011        -0.3268
 110   1.0000      -0.003211        -0.0874
 111   1.0000      -0.003075        -0.0837
 112   1.0000       0.007513         0.2044
 113   1.0000       0.011090         0.3018
 114   1.0000       0.017166         0.4671
 115   1.0000       0.033716         0.9175
 116   1.0000       0.059986         1.6323
 117   0.0000       0.183798         5.0014
 118   0.0000       0.189383         5.1534
 119   0.0000       0.190592         5.1863
 120   0.0000       0.196582         5.3493
 121   0.0000       0.212129         5.7723

                 SPIN DOWN ORBITALS
  NO   OCC          E(Eh)            E(eV)
   0   1.0000    -196.639291     -5350.8272
   1   1.0000     -88.676970     -2413.0230
   2   1.0000     -88.676965     -2413.0229
   3   1.0000     -88.676607     -2413.0132
   4   1.0000     -88.676528     -2413.0110
   5   1.0000     -88.611130     -2411.2314
   6   1.0000     -88.611105     -2411.2307
   7   1.0000     -88.611098     -2411.2306
   8   1.0000     -88.610975     -2411.2272
   9   1.0000     -22.000285      -598.6582
  10   1.0000     -18.859758      -513.2001
  11   1.0000     -18.516659      -503.8639
  12   1.0000     -18.500502      -503.4242
  13   1.0000     -18.499831      -503.4060
  14   1.0000     -10.018546      -272.6185
  15   1.0000     -10.018508      -272.6175
  16   1.0000     -10.016597      -272.5655
  17   1.0000     -10.016564      -272.5646
  18   1.0000     -10.016527      -272.5635
  19   1.0000     -10.009239      -272.3652
  20   1.0000      -9.990454      -271.8541
  21   1.0000      -9.989991      -271.8415
  22   1.0000      -9.989700      -271.8336
  23   1.0000      -9.989198      -271.8199
  24   1.0000      -7.730594      -210.3602
  25   1.0000      -7.730583      -210.3598
  26   1.0000      -7.730227      -210.3502
  27   1.0000      -7.730164      -210.3485
  28   1.0000      -7.665563      -208.5906
  29   1.0000      -7.665538      -208.5899
  30   1.0000      -7.665453      -208.5876
  31   1.0000      -7.665364      -208.5852
  32   1.0000      -5.695865      -154.9924
  33   1.0000      -5.695862      -154.9923
  34   1.0000      -5.695496      -154.9823
  35   1.0000      -5.695441      -154.9808
  36   1.0000      -5.691972      -154.8864
  37   1.0000      -5.691964      -154.8862
  38   1.0000      -5.691590      -154.8760
  39   1.0000      -5.691525      -154.8743
  40   1.0000      -5.685287      -154.7045
  41   1.0000      -5.685276      -154.7042
  42   1.0000      -5.684945      -154.6952
  43   1.0000      -5.684879      -154.6934
  44   1.0000      -5.630434      -153.2119
  45   1.0000      -5.630420      -153.2115
  46   1.0000      -5.630370      -153.2102
  47   1.0000      -5.630280      -153.2077
  48   1.0000      -5.624239      -153.0433
  49   1.0000      -5.624207      -153.0424
  50   1.0000      -5.624161      -153.0412
  51   1.0000      -5.624046      -153.0381
  52   1.0000      -5.623502      -153.0233
  53   1.0000      -5.623485      -153.0228
  54   1.0000      -5.623368      -153.0196
  55   1.0000      -5.623276      -153.0171
  56   1.0000      -2.364455       -64.3401
  57   1.0000      -1.431188       -38.9446
  58   1.0000      -1.376997       -37.4700
  59   1.0000      -1.376342       -37.4522
  60   1.0000      -0.646119       -17.5818
  61   1.0000      -0.644645       -17.5417
  62   1.0000      -0.624949       -17.0057
  63   1.0000      -0.595208       -16.1964
  64   1.0000      -0.593977       -16.1629
  65   1.0000      -0.577411       -15.7122
  66   1.0000      -0.576379       -15.6841
  67   1.0000      -0.493632       -13.4324
  68   1.0000      -0.491456       -13.3732
  69   1.0000      -0.488037       -13.2802
  70   1.0000      -0.486869       -13.2484
  71   1.0000      -0.424119       -11.5409
  72   1.0000      -0.421185       -11.4610
  73   1.0000      -0.418821       -11.3967
  74   1.0000      -0.413350       -11.2478
  75   1.0000      -0.381991       -10.3945
  76   1.0000      -0.377046       -10.2599
  77   1.0000      -0.304961        -8.2984
  78   1.0000      -0.295889        -8.0516
  79   1.0000      -0.270403        -7.3580
  80   1.0000      -0.264763        -7.2046
  81   1.0000      -0.259100        -7.0505
  82   1.0000      -0.253571        -6.9000
  83   1.0000      -0.242611        -6.6018
  84   1.0000      -0.239622        -6.5204
  85   1.0000      -0.197960        -5.3868
  86   1.0000      -0.196619        -5.3503
  87   1.0000      -0.194198        -5.2844
  88   1.0000      -0.191500        -5.2110
  89   1.0000      -0.182889        -4.9767
  90   1.0000      -0.176989        -4.8161
  91   1.0000      -0.168702        -4.5906
  92   1.0000      -0.150777        -4.1029
  93   1.0000      -0.149789        -4.0760
  94   1.0000      -0.144035        -3.9194
  95   1.0000      -0.136861        -3.7242
  96   1.0000      -0.128134        -3.4867
  97   1.0000      -0.094598        -2.5741
  98   1.0000      -0.094047        -2.5591
  99   1.0000      -0.088074        -2.3966
 100   1.0000      -0.081995        -2.2312
 101   1.0000      -0.081162        -2.2085
 102   1.0000      -0.079221        -2.1557
 103   1.0000      -0.070408        -1.9159
 104   1.0000      -0.046030        -1.2525
 105   1.0000      -0.038735        -1.0540
 106   1.0000      -0.036924        -1.0048
 107   1.0000      -0.034123        -0.9285
 108   1.0000      -0.032070        -0.8727
 109   1.0000      -0.011094        -0.3019
 110   1.0000      -0.004433        -0.1206
 111   1.0000      -0.002037        -0.0554
 112   1.0000       0.008259         0.2247
 113   1.0000       0.011998         0.3265
 114   1.0000       0.033958         0.9241
 115   1.0000       0.059189         1.6106
 116   0.0000       0.183784         5.0010
 117   0.0000       0.186114         5.0644
 118   0.0000       0.190580         5.1859
 119   0.0000       0.190697         5.1891
 120   0.0000       0.197118         5.3639

MULLIKEN ATOMIC CHARGES AND SPIN POPULATIONS
--------------------------------------------
   0 V :    0.449479    1.199060
   1 S :   -0.258456   -0.024287
   2 S :   -0.256130   -0.024083
   3 S :   -0.258570   -0.024221
   4 S :   -0.256637   -0.023988
   5 O :   -0.507348   -0.138776
   6 C :   -0.116450    0.008875
   7 C :   -0.114223    0.008920
   8 C :   -0.111974    0.009054
   9 C :   -0.112537    0.008974
  10 S :   -0.041429   -0.000183
  11 S :   -0.041407   -0.000214
  12 S :   -0.037890   -0.000232
  13 S :   -0.037921   -0.000257
  14 C :   -0.329056    0.000318
  15 C :   -0.317324    0.000354
  16 C :   -0.327790    0.000304
  17 C :   -0.317740    0.000373
  18 C :   -0.093511   -0.000012
  19 H :    0.146808   -0.000103
  20 H :    0.100291    0.000031
  21 H :    0.038836    0.000107
  22 H :    0.071343    0.000054
  23 H :    0.100369    0.000032
  24 H :    0.147202   -0.000104
  25 C :   -0.088934   -0.000130
  26 H :    0.098582    0.000055
  27 H :    0.147281   -0.000112
  28 H :    0.053846    0.000069
  29 H :    0.025344    0.000180
  30 H :    0.147282   -0.000109
  31 H :    0.098666    0.000052
Sum of atomic charges         :   -2.0000000

LOEWDIN ATOMIC CHARGES AND SPIN POPULATIONS
-------------------------------------------
   0 V :   -0.242604    1.153020
   1 S :    0.084007   -0.016490
   2 S :    0.085955   -0.016318
   3 S :    0.083830   -0.016430
   4 S :    0.085608   -0.016268
   5 O :   -0.351337   -0.124218
   6 C :   -0.551099    0.010049
   7 C :   -0.550486    0.010012
   8 C :   -0.547660    0.010092
   9 C :   -0.548057    0.010109
  10 S :    0.338740   -0.001026
  11 S :    0.338578   -0.001043
  12 S :    0.339475   -0.001045
  13 S :    0.339468   -0.001056
  14 C :   -0.294987    0.000166
  15 C :   -0.298005    0.000172
  16 C :   -0.295024    0.000158
  17 C :   -0.298196    0.000182
  18 C :   -0.191462   -0.000033
  19 H :    0.066303   -0.000030
  20 H :    0.049032    0.000006
  21 H :    0.046598    0.000024
  22 H :    0.053023    0.000013
  23 H :    0.049065    0.000007
  24 H :    0.066455   -0.000030
  25 C :   -0.203140   -0.000033
  26 H :    0.051483    0.000013
  27 H :    0.067186   -0.000033
  28 H :    0.057350    0.000013
  29 H :    0.051210    0.000035
  30 H :    0.067236   -0.000032
  31 H :    0.051457    0.000012

  Mayer bond orders larger than 0.100000
B(  0-V ,  1-S ) :   0.7886 B(  0-V ,  2-S ) :   0.7902 B(  0-V ,  3-S ) :   0.7907
B(  0-V ,  4-S ) :   0.7876 B(  0-V ,  5-O ) :   2.1075 B(  1-S ,  8-C ) :   1.1338
B(  2-S ,  6-C ) :   1.1344 B(  3-S ,  9-C ) :   1.1329 B(  4-S ,  7-C ) :   1.1355
B(  6-C ,  7-C ) :   1.5256 B(  6-C , 10-S ) :   0.9539 B(  7-C , 11-S ) :   0.9534
B(  8-C ,  9-C ) :   1.5329 B(  8-C , 13-S ) :   0.9512 B(  9-C , 12-S ) :   0.9515
B( 10-S , 16-C ) :   1.0068 B( 11-S , 14-C ) :   1.0065 B( 12-S , 15-C ) :   1.0049
B( 13-S , 17-C ) :   1.0055 B( 14-C , 18-C ) :   0.8998 B( 14-C , 23-H ) :   0.9650
B( 14-C , 24-H ) :   0.9750 B( 15-C , 25-C ) :   0.9289 B( 15-C , 30-H ) :   0.9723
B( 15-C , 31-H ) :   0.9597 B( 16-C , 18-C ) :   0.8998 B( 16-C , 19-H ) :   0.9749
B( 16-C , 20-H ) :   0.9649 B( 17-C , 25-C ) :   0.9289 B( 17-C , 26-H ) :   0.9597
B( 17-C , 27-H ) :   0.9722 B( 18-C , 21-H ) :   0.9413 B( 18-C , 22-H ) :   0.9670
B( 25-C , 28-H ) :   0.9473 B( 25-C , 29-H ) :   0.9227

FINAL SINGLE POINT ENERGY     -4592.679845795857

DIPOLE MOMENT
-------------
                                X             Y             Z
Electronic contribution:     -2.95636     -11.74403      24.24625
Nuclear contribution   :      3.29108      13.08008     -27.03434
                        -----------------------------------------
Total Dipole Moment    :      0.33472       1.33604      -2.78809
                        -----------------------------------------
Magnitude (a.u.)       :      3.10974
Magnitude (Debye)      :      7.90433

Rotational constants in cm-1:     0.012777     0.002548     0.002431
Rotational constants in MHz :   383.052096    76.399540    72.880247

                             ****ORCA TERMINATED NORMALLY****
TOTAL RUN TIME: 0 days 0 hours 27 minutes 50 seconds 449 msec
