                         Program Version 5.0.4 -  RELEASE  -
|  1> ! nofrozencore ReducedPop printbasis
|  2> ! B3LYP TZVP
|  3>
|  4> %basis
|  5> newgto V "CP(PPP)" end
|  6> end
|  7>
|  8> %pal
|  9> nprocs 8
| 10> end
| 11>
| 12> % sym SymThresh 1e-2 end
| 13> * xyz -2 2
| 14> V -0.47693530078543095 0.3625590367892805 -0.9411865971868383
| 15> S -1.1301092125860137 1.8891102540719982 0.7496896029206023
| 16> S 1.8184880317938215 1.3920308080719865 -0.6938138407628414
| 17> S -1.962177565059811 -1.2332903379296714 -0.02145542684887337
| 18> S 1.0028039320281281 -1.6181825729195785 -1.4664614449801596
| 19> O -1.0282723137198824 0.8689275701889267 -2.3533210574211347
| 20> C 2.8928874718416533 0.29390454065175303 -1.4426954627276296
| 21> C 2.552864348242906 -0.9630299538285348 -1.7644868631297124
| 22> C -2.664838358917644 1.1043685750526138 1.4039338507516572
| 23> C -3.011793040782933 -0.1946062941144824 1.0834769604433316
| 24> S 4.4878435758739625 0.9115930350933528 -1.6350505797626227
| 25> S 3.675126548732632 -2.1034957575843642 -2.4005643610264125
| 26> S -4.639873897195989 -0.9960500023628797 1.6861457291151336
| 27> S -3.7814442292418065 2.2231462499525065 2.479702966196141
| 28> C 4.9115221098118775 -2.4459014125295893 -1.0798027552659064
| 29> C -4.215746167220778 -1.0939583199864633 3.494272873462619
| 30> C 5.572309558210312 -0.0016596779887492435 -0.4608039050756402
| 31> C -3.575811376753321 1.3117707292928178 4.087337115729152
| 32> C 6.004598178578717 -1.394066129655471 -0.91189692877571
| 33> H 5.09543330602063 -0.014727155088435999 0.5304011916282516
| 34> H 6.466677371105987 0.6403751247438757 -0.3998384084214854
| 35> H 6.741484546027284 -1.776948944533702 -0.1866605272703957
| 36> H 6.526162491718991 -1.2922556678061814 -1.8705794988986617
| 37> H 5.3788568537397285 -3.3862628790143723 -1.4160153464184058
| 38> H 4.380924937848902 -2.6482493277642702 -0.13771395594013602
| 39> C -4.5302271553766165 0.14187025964544697 4.341657776401362
| 40> H -3.66129977297478 2.0594401731090293 4.8980504062838595
| 41> H -2.536577876028664 0.9447153188563288 4.078669152249921
| 42> H -5.5708856814762395 0.45304421794696625 4.201842237851015
| 43> H -4.419781637957048 -0.1480897270560729 5.399445503719078
| 44> H -3.1324208349401386 -1.295251720679764 3.5243857518764927
| 45> H -4.734167755012298 -1.981571000800306 3.9031248131867486
| 46> *
| 47>
| 48> % eprnmr
| 49> gtensor true
| 50> Nuclei = all H {aiso,adip,aorb,fgrad,rho}
| 51> Nuclei = all V {aiso,adip,aorb,fgrad,rho}
| 52> end
| 53>
| 54>                          ****END OF INPUT****

CARTESIAN COORDINATES (ANGSTROEM)
---------------------------------
  V     -0.477317    0.362933   -0.942246
  S     -1.130491    1.889484    0.748630
  S      1.818106    1.392405   -0.694873
  S     -1.962559   -1.232916   -0.022515
  S      1.002422   -1.617808   -1.467521
  O     -1.028654    0.869302   -2.354381
  C      2.892506    0.294279   -1.443755
  C      2.552482   -0.962656   -1.765546
  C     -2.665220    1.104743    1.402874
  C     -3.012175   -0.194232    1.082418
  S      4.487462    0.911967   -1.636110
  S      3.674745   -2.103122   -2.401624
  S     -4.640256   -0.995676    1.685086
  S     -3.781826    2.223520    2.478644
  C      4.911140   -2.445527   -1.080862
  C     -4.216128   -1.093584    3.493213
  C      5.571928   -0.001285   -0.461863
  C     -3.576193    1.312145    4.086278
  C      6.004216   -1.393692   -0.912956
  H      5.095051   -0.014353    0.529342
  H      6.466295    0.640749   -0.400898
  H      6.741103   -1.776575   -0.187720
  H      6.525781   -1.291881   -1.871639
  H      5.378475   -3.385889   -1.417075
  H      4.380543   -2.647875   -0.138773
  C     -4.530609    0.142244    4.340598
  H     -3.661682    2.059814    4.896991
  H     -2.536960    0.945090    4.077610
  H     -5.571268    0.453418    4.200783
  H     -4.420164   -0.147716    5.398386
  H     -3.132803   -1.294878    3.523326
  H     -4.734550   -1.981197    3.902065

 Total Charge           Charge          ....   -2
 Multiplicity           Mult            ....    2
 Number of Electrons    NEL             ....  233
 Basis Dimension        Dim             ....  517

ORBITAL ENERGIES
----------------
                 SPIN UP ORBITALS
  NO   OCC          E(Eh)            E(eV)
   0   1.0000    -196.639798     -5350.8409
   1   1.0000     -88.686569     -2413.2842
   2   1.0000     -88.686486     -2413.2820
   3   1.0000     -88.667194     -2412.7570
   4   1.0000     -88.667029     -2412.7525
   5   1.0000     -88.621337     -2411.5092
   6   1.0000     -88.621194     -2411.5053
   7   1.0000     -88.604774     -2411.0585
   8   1.0000     -88.604739     -2411.0575
   9   1.0000     -22.015682      -599.0772
  10   1.0000     -18.856830      -513.1204
  11   1.0000     -18.522469      -504.0220
  12   1.0000     -18.516732      -503.8659
  13   1.0000     -18.516725      -503.8657
  14   1.0000     -10.021745      -272.7055
  15   1.0000     -10.021719      -272.7048
  16   1.0000     -10.012584      -272.4562
  17   1.0000     -10.012523      -272.4546
  18   1.0000     -10.011211      -272.4189
  19   1.0000     -10.010606      -272.4024
  20   1.0000     -10.008979      -272.3582
  21   1.0000     -10.000684      -272.1325
  22   1.0000      -9.975433      -271.4453
  23   1.0000      -9.974604      -271.4228
  24   1.0000      -7.738312      -210.5702
  25   1.0000      -7.738232      -210.5680
  26   1.0000      -7.722702      -210.1454
  27   1.0000      -7.722561      -210.1416
  28   1.0000      -7.674565      -208.8355
  29   1.0000      -7.674454      -208.8325
  30   1.0000      -7.660505      -208.4529
  31   1.0000      -7.660483      -208.4523
  32   1.0000      -5.703524      -155.2008
  33   1.0000      -5.703443      -155.1986
  34   1.0000      -5.700209      -155.1106
  35   1.0000      -5.700130      -155.1084
  36   1.0000      -5.692932      -154.9125
  37   1.0000      -5.692856      -154.9105
  38   1.0000      -5.687945      -154.7769
  39   1.0000      -5.687805      -154.7730
  40   1.0000      -5.683573      -154.6579
  41   1.0000      -5.683436      -154.6542
  42   1.0000      -5.677542      -154.4938
  43   1.0000      -5.677390      -154.4896
  44   1.0000      -5.640048      -153.4735
  45   1.0000      -5.639927      -153.4702
  46   1.0000      -5.632850      -153.2776
  47   1.0000      -5.632707      -153.2737
  48   1.0000      -5.632273      -153.2619
  49   1.0000      -5.632158      -153.2588
  50   1.0000      -5.624863      -153.0603
  51   1.0000      -5.624852      -153.0600
  52   1.0000      -5.619017      -152.9012
  53   1.0000      -5.618986      -152.9004
  54   1.0000      -5.618625      -152.8906
  55   1.0000      -5.618616      -152.8903
  56   1.0000      -2.409593       -65.5684
  57   1.0000      -1.450799       -39.4782
  58   1.0000      -1.439610       -39.1738
  59   1.0000      -1.438405       -39.1410
  60   1.0000      -0.648696       -17.6519
  61   1.0000      -0.640737       -17.4353
  62   1.0000      -0.617866       -16.8130
  63   1.0000      -0.603073       -16.4105
  64   1.0000      -0.579735       -15.7754
  65   1.0000      -0.579385       -15.7659
  66   1.0000      -0.570366       -15.5204
  67   1.0000      -0.498303       -13.5595
  68   1.0000      -0.491527       -13.3751
  69   1.0000      -0.489596       -13.3226
  70   1.0000      -0.472325       -12.8526
  71   1.0000      -0.423714       -11.5298
  72   1.0000      -0.418986       -11.4012
  73   1.0000      -0.412346       -11.2205
  74   1.0000      -0.406713       -11.0672
  75   1.0000      -0.382394       -10.4055
  76   1.0000      -0.368675       -10.0322
  77   1.0000      -0.292705        -7.9649
  78   1.0000      -0.292144        -7.9496
  79   1.0000      -0.277053        -7.5390
  80   1.0000      -0.274879        -7.4798
  81   1.0000      -0.260113        -7.0780
  82   1.0000      -0.254837        -6.9345
  83   1.0000      -0.240769        -6.5517
  84   1.0000      -0.236568        -6.4373
  85   1.0000      -0.196666        -5.3515
  86   1.0000      -0.194885        -5.3031
  87   1.0000      -0.194590        -5.2951
  88   1.0000      -0.187596        -5.1047
  89   1.0000      -0.184358        -5.0166
  90   1.0000      -0.180779        -4.9193
  91   1.0000      -0.177742        -4.8366
  92   1.0000      -0.151760        -4.1296
  93   1.0000      -0.150212        -4.0875
  94   1.0000      -0.147060        -4.0017
  95   1.0000      -0.141331        -3.8458
  96   1.0000      -0.138119        -3.7584
  97   1.0000      -0.098361        -2.6765
  98   1.0000      -0.095541        -2.5998
  99   1.0000      -0.089194        -2.4271
 100   1.0000      -0.082097        -2.2340
 101   1.0000      -0.080522        -2.1911
 102   1.0000      -0.080421        -2.1884
 103   1.0000      -0.069610        -1.8942
 104   1.0000      -0.049635        -1.3506
 105   1.0000      -0.041486        -1.1289
 106   1.0000      -0.039436        -1.0731
 107   1.0000      -0.034856        -0.9485
 108   1.0000      -0.032791        -0.8923
 109   1.0000      -0.011124        -0.3027
 110   1.0000      -0.010934        -0.2975
 111   1.0000      -0.004654        -0.1266
 112   1.0000       0.003842         0.1046
 113   1.0000       0.017295         0.4706
 114   1.0000       0.019743         0.5372
 115   1.0000       0.028769         0.7828
 116   1.0000       0.062014         1.6875
 117   0.0000       0.184112         5.0099
 118   0.0000       0.189530         5.1574
 119   0.0000       0.195279         5.3138
 120   0.0000       0.198704         5.4070
 121   0.0000       0.205027         5.5791

                 SPIN DOWN ORBITALS
  NO   OCC          E(Eh)            E(eV)
   0   1.0000    -196.639935     -5350.8446
   1   1.0000     -88.686573     -2413.2843
   2   1.0000     -88.686491     -2413.2821
   3   1.0000     -88.667214     -2412.7575
   4   1.0000     -88.667049     -2412.7531
   5   1.0000     -88.621503     -2411.5137
   6   1.0000     -88.621360     -2411.5098
   7   1.0000     -88.604938     -2411.0630
   8   1.0000     -88.604902     -2411.0620
   9   1.0000     -22.001106      -598.6805
  10   1.0000     -18.860394      -513.2174
  11   1.0000     -18.517363      -503.8831
  12   1.0000     -18.501273      -503.4452
  13   1.0000     -18.500759      -503.4312
  14   1.0000     -10.021739      -272.7054
  15   1.0000     -10.021713      -272.7047
  16   1.0000     -10.012582      -272.4562
  17   1.0000     -10.012522      -272.4546
  18   1.0000     -10.010762      -272.4067
  19   1.0000     -10.010159      -272.3903
  20   1.0000     -10.008977      -272.3581
  21   1.0000     -10.000686      -272.1325
  22   1.0000      -9.975284      -271.4413
  23   1.0000      -9.974457      -271.4188
  24   1.0000      -7.738317      -210.5703
  25   1.0000      -7.738237      -210.5681
  26   1.0000      -7.722722      -210.1460
  27   1.0000      -7.722581      -210.1421
  28   1.0000      -7.674714      -208.8396
  29   1.0000      -7.674603      -208.8366
  30   1.0000      -7.660662      -208.4572
  31   1.0000      -7.660638      -208.4566
  32   1.0000      -5.703533      -155.2010
  33   1.0000      -5.703452      -155.1988
  34   1.0000      -5.700221      -155.1109
  35   1.0000      -5.700142      -155.1088
  36   1.0000      -5.692930      -154.9125
  37   1.0000      -5.692854      -154.9104
  38   1.0000      -5.687965      -154.7774
  39   1.0000      -5.687825      -154.7736
  40   1.0000      -5.683598      -154.6586
  41   1.0000      -5.683460      -154.6548
  42   1.0000      -5.677576      -154.4947
  43   1.0000      -5.677424      -154.4906
  44   1.0000      -5.640266      -153.4794
  45   1.0000      -5.640143      -153.4761
  46   1.0000      -5.633227      -153.2879
  47   1.0000      -5.633087      -153.2841
  48   1.0000      -5.632412      -153.2657
  49   1.0000      -5.632298      -153.2626
  50   1.0000      -5.625023      -153.0647
  51   1.0000      -5.625012      -153.0643
  52   1.0000      -5.619438      -152.9127
  53   1.0000      -5.619405      -152.9118
  54   1.0000      -5.618757      -152.8941
  55   1.0000      -5.618748      -152.8939
  56   1.0000      -2.365658       -64.3728
  57   1.0000      -1.431997       -38.9666
  58   1.0000      -1.378240       -37.5038
  59   1.0000      -1.378173       -37.5020
  60   1.0000      -0.648675       -17.6514
  61   1.0000      -0.640673       -17.4336
  62   1.0000      -0.625508       -17.0209
  63   1.0000      -0.603051       -16.4098
  64   1.0000      -0.579777       -15.7765
  65   1.0000      -0.578871       -15.7519
  66   1.0000      -0.570316       -15.5191
  67   1.0000      -0.498435       -13.5631
  68   1.0000      -0.491555       -13.3759
  69   1.0000      -0.489604       -13.3228
  70   1.0000      -0.472155       -12.8480
  71   1.0000      -0.423886       -11.5345
  72   1.0000      -0.419358       -11.4113
  73   1.0000      -0.412358       -11.2208
  74   1.0000      -0.406768       -11.0687
  75   1.0000      -0.382304       -10.4030
  76   1.0000      -0.368729       -10.0336
  77   1.0000      -0.292710        -7.9651
  78   1.0000      -0.292112        -7.9488
  79   1.0000      -0.276996        -7.5374
  80   1.0000      -0.274882        -7.4799
  81   1.0000      -0.259815        -7.0699
  82   1.0000      -0.254787        -6.9331
  83   1.0000      -0.240733        -6.5507
  84   1.0000      -0.236302        -6.4301
  85   1.0000      -0.196387        -5.3440
  86   1.0000      -0.194836        -5.3018
  87   1.0000      -0.194542        -5.2938
  88   1.0000      -0.187581        -5.1043
  89   1.0000      -0.183387        -4.9902
  90   1.0000      -0.180354        -4.9077
  91   1.0000      -0.176624        -4.8062
  92   1.0000      -0.151441        -4.1209
  93   1.0000      -0.149118        -4.0577
  94   1.0000      -0.146933        -3.9982
  95   1.0000      -0.141148        -3.8408
  96   1.0000      -0.137825        -3.7504
  97   1.0000      -0.096722        -2.6319
  98   1.0000      -0.095071        -2.5870
  99   1.0000      -0.089231        -2.4281
 100   1.0000      -0.082140        -2.2352
 101   1.0000      -0.082085        -2.2336
 102   1.0000      -0.080037        -2.1779
 103   1.0000      -0.070337        -1.9140
 104   1.0000      -0.046936        -1.2772
 105   1.0000      -0.040618        -1.1053
 106   1.0000      -0.038419        -1.0454
 107   1.0000      -0.034263        -0.9323
 108   1.0000      -0.032801        -0.8926
 109   1.0000      -0.009912        -0.2697
 110   1.0000      -0.009312        -0.2534
 111   1.0000      -0.005845        -0.1591
 112   1.0000       0.003653         0.0994
 113   1.0000       0.021085         0.5738
 114   1.0000       0.028975         0.7885
 115   1.0000       0.061296         1.6679
 116   0.0000       0.181499         4.9388
 117   0.0000       0.185425         5.0457
 118   0.0000       0.190552         5.1852
 119   0.0000       0.195850         5.3294
 120   0.0000       0.198974         5.4143

MULLIKEN ATOMIC CHARGES AND SPIN POPULATIONS
--------------------------------------------
   0 V :    0.451575    1.195631
   1 S :   -0.241540   -0.027195
   2 S :   -0.264127   -0.024150
   3 S :   -0.241565   -0.027039
   4 S :   -0.264335   -0.023957
   5 O :   -0.506928   -0.138108
   6 C :   -0.128381    0.004551
   7 C :   -0.125217    0.004612
   8 C :   -0.107726    0.017242
   9 C :   -0.108335    0.017398
  10 S :   -0.031565   -0.000918
  11 S :   -0.031478   -0.000936
  12 S :   -0.062687    0.000723
  13 S :   -0.062768    0.000666
  14 C :   -0.307130    0.000142
  15 C :   -0.362653    0.000522
  16 C :   -0.305785    0.000136
  17 C :   -0.362512    0.000548
  18 C :   -0.109132    0.000056
  19 H :    0.133147   -0.000137
  20 H :    0.090759    0.000012
  21 H :    0.040567   -0.000032
  22 H :    0.074518   -0.000009
  23 H :    0.090848    0.000013
  24 H :    0.133603   -0.000136
  25 C :   -0.061008    0.000089
  26 H :    0.108788    0.000081
  27 H :    0.158697   -0.000037
  28 H :    0.085297    0.000067
  29 H :    0.049395    0.000115
  30 H :    0.158889   -0.000030
  31 H :    0.108791    0.000080
Sum of atomic charges         :   -2.0000000

LOEWDIN ATOMIC CHARGES AND SPIN POPULATIONS
-------------------------------------------
   0 V :   -0.251535    1.147994
   1 S :    0.090600   -0.016620
   2 S :    0.091022   -0.017866
   3 S :    0.091073   -0.016439
   4 S :    0.091203   -0.017707
   5 O :   -0.352324   -0.123612
   6 C :   -0.609005    0.005668
   7 C :   -0.608248    0.005711
   8 C :   -0.489133    0.017819
   9 C :   -0.489432    0.018068
  10 S :    0.369713   -0.001738
  11 S :    0.369395   -0.001752
  12 S :    0.293575   -0.000111
  13 S :    0.293668   -0.000140
  14 C :   -0.296743    0.000040
  15 C :   -0.294312    0.000300
  16 C :   -0.296822    0.000036
  17 C :   -0.294432    0.000312
  18 C :   -0.188479   -0.000107
  19 H :    0.061853   -0.000065
  20 H :    0.048842   -0.000006
  21 H :    0.044567   -0.000024
  22 H :    0.052925   -0.000009
  23 H :    0.048861   -0.000005
  24 H :    0.062016   -0.000065
  25 C :   -0.183685    0.000023
  26 H :    0.047880    0.000055
  27 H :    0.072551    0.000036
  28 H :    0.054486    0.000048
  29 H :    0.049398    0.000062
  30 H :    0.072640    0.000039
  31 H :    0.047881    0.000055

  Mayer bond orders larger than 0.100000
B(  0-V ,  1-S ) :   0.8239 B(  0-V ,  2-S ) :   0.7518 B(  0-V ,  3-S ) :   0.8275
B(  0-V ,  4-S ) :   0.7505 B(  0-V ,  5-O ) :   2.1048 B(  1-S ,  8-C ) :   1.0676
B(  2-S ,  6-C ) :   1.1893 B(  3-S ,  9-C ) :   1.0654 B(  4-S ,  7-C ) :   1.1893
B(  6-C ,  7-C ) :   1.4241 B(  6-C , 10-S ) :   1.0300 B(  7-C , 11-S ) :   1.0290
B(  8-C ,  9-C ) :   1.6049 B(  8-C , 13-S ) :   0.8847 B(  9-C , 12-S ) :   0.8850
B( 10-S , 16-C ) :   0.9860 B( 11-S , 14-C ) :   0.9862 B( 12-S , 15-C ) :   1.0184
B( 13-S , 17-C ) :   1.0187 B( 14-C , 18-C ) :   0.8856 B( 14-C , 23-H ) :   0.9722
B( 14-C , 24-H ) :   0.9673 B( 15-C , 25-C ) :   0.8682 B( 15-C , 30-H ) :   0.9830
B( 15-C , 31-H ) :   0.9660 B( 16-C , 18-C ) :   0.8856 B( 16-C , 19-H ) :   0.9672
B( 16-C , 20-H ) :   0.9723 B( 17-C , 25-C ) :   0.8682 B( 17-C , 26-H ) :   0.9662
B( 17-C , 27-H ) :   0.9828 B( 18-C , 21-H ) :   0.9490 B( 18-C , 22-H ) :   0.9786
B( 25-C , 28-H ) :   0.9673 B( 25-C , 29-H ) :   0.9569

FINAL SINGLE POINT ENERGY     -4592.693785083526

DIPOLE MOMENT
-------------
                                X             Y             Z
Electronic contribution:    -11.28317       8.67722     -22.66455
Nuclear contribution   :     12.08593      -9.59815      25.48023
                        -----------------------------------------
Total Dipole Moment    :      0.80276      -0.92093       2.81568
                        -----------------------------------------
Magnitude (a.u.)       :      3.06930
Magnitude (Debye)      :      7.80153

Rotational constants in cm-1:     0.012725     0.002545     0.002427
Rotational constants in MHz :   381.471034    76.309129    72.759252

                             ****ORCA TERMINATED NORMALLY****
TOTAL RUN TIME: 0 days 0 hours 27 minutes 47 seconds 991 msec
