                         Program Version 5.0.4 -  RELEASE  -
|  1> ! nofrozencore ReducedPop printbasis
|  2> ! B3LYP TZVP
|  3>
|  4> %basis
|  5> newgto V "CP(PPP)" end
|  6> end
|  7>
|  8> %pal
|  9> nprocs 8
| 10> end
| 11>
| 12> % sym SymThresh 1e-2 end
| 13> * xyz -2 2
| 14> V -0.4208019488171469 0.02105569158577696 1.0356773411929683
| 15> S 1.2059450737634607 1.6642753359583629 0.9093058415177593
| 16> S -1.8500166170606593 1.6009306533488772 -0.45052504230217016
| 17> S 1.6167891926186093 -1.590785167976699 1.0238212920436898
| 18> S -1.5284660070261433 -1.6497846047315832 -0.12347152438603633
| 19> O -1.016606956090887 0.05568808154842929 2.5165141716412163
| 20> C -3.025119363852885 0.4685780164495369 -1.0227777861605785
| 21> C -2.9538602012779447 -0.8883426146569985 -0.9695812689478834
| 22> C 2.8035739397927255 0.8950612748289026 1.337005851941851
| 23> C 2.8719391995891197 -0.46176704076104114 1.398800614182092
| 24> S -4.295044917183866 1.4890693100357866 -1.7584107252094394
| 25> S -4.32436691567086 -1.8246728086195254 -1.750664808056879
| 26> S 4.279734815862574 -1.4891149271923825 1.7961099560849731
| 27> S 4.342527130262154 1.8236339170704572 1.706392083040822
| 28> C -4.053122610640515 -1.6195312145190752 -3.5734326504516614
| 29> C 5.421548193803001 -1.0287536381931726 0.41872325644240077
| 30> C -4.158832491233395 0.9669444504290197 -3.525357234672389
| 31> C 5.418218212036581 1.5537390112149216 0.2215370473871061
| 32> C -4.748303077810027 -0.35266630466595916 -4.051009606793606
| 33> H -3.0906809028032973 1.0028182017094553 -3.755775148894195
| 34> H -4.634031451917123 1.7890259237965647 -4.070179766313612
| 35> H -4.694003927946796 -0.297362052607061 -5.154519595115568
| 36> H -5.809627955237886 -0.4154882495993264 -3.784908960645334
| 37> H -4.489188245887225 -2.505489393780594 -4.0455593299620425
| 38> H -2.980349630162358 -1.6137365642120587 -3.772793733055142
| 39> C 6.229325958674306 0.2797913142740295 0.4081402072538907
| 40> H 6.074043879204807 2.427994097146781 0.16150120626175918
| 41> H 4.790820618621107 1.5304592120080358 -0.6709527947334409
| 42> H 6.804665793246949 0.36598890892009617 1.3370201316817776
| 43> H 6.959716040178102 0.1850279200730269 -0.4172277712450234
| 44> H 4.816205937763091 -1.087926947386224 -0.48985215203818094
| 45> H 6.130784357362857 -1.8621465984373682 0.38806740374972215
| 46> *
| 47>
| 48> % eprnmr
| 49> gtensor true
| 50> Nuclei = all H {aiso,adip,aorb,fgrad,rho}
| 51> Nuclei = all V {aiso,adip,aorb,fgrad,rho}
| 52> end
| 53>
| 54>                          ****END OF INPUT****

CARTESIAN COORDINATES (ANGSTROEM)
---------------------------------
  V     -0.421323    0.021081    1.036743
  S      1.205424    1.664301    0.910372
  S     -1.850538    1.600956   -0.449459
  S      1.616268   -1.590760    1.024887
  S     -1.528987   -1.649759   -0.122406
  O     -1.017128    0.055713    2.517580
  C     -3.025640    0.468603   -1.021712
  C     -2.954381   -0.888317   -0.968515
  C      2.803053    0.895087    1.338072
  C      2.871418   -0.461742    1.399867
  S     -4.295566    1.489095   -1.757345
  S     -4.324888   -1.824648   -1.749599
  S      4.279214   -1.489090    1.797176
  S      4.342006    1.823659    1.707458
  C     -4.053644   -1.619506   -3.572367
  C      5.421027   -1.028728    0.419789
  C     -4.159354    0.966970   -3.524291
  C      5.417697    1.553764    0.222603
  C     -4.748824   -0.352641   -4.049944
  H     -3.091202    1.002843   -3.754709
  H     -4.634552    1.789051   -4.069114
  H     -4.694525   -0.297337   -5.153454
  H     -5.810149   -0.415463   -3.783843
  H     -4.489709   -2.505464   -4.044493
  H     -2.980871   -1.613711   -3.771728
  C      6.228805    0.279817    0.409206
  H      6.073523    2.428019    0.162567
  H      4.790300    1.530484   -0.669887
  H      6.804145    0.366014    1.338086
  H      6.959195    0.185053   -0.416162
  H      4.815685   -1.087902   -0.488786
  H      6.130263   -1.862121    0.389133

 Total Charge           Charge          ....   -2
 Multiplicity           Mult            ....    2
 Number of Electrons    NEL             ....  233
 Basis Dimension        Dim             ....  517

ORBITAL ENERGIES
----------------
                 SPIN UP ORBITALS
  NO   OCC          E(Eh)            E(eV)
   0   1.0000    -196.638310     -5350.8004
   1   1.0000     -88.678061     -2413.0527
   2   1.0000     -88.677948     -2413.0497
   3   1.0000     -88.676449     -2413.0088
   4   1.0000     -88.676414     -2413.0079
   5   1.0000     -88.612709     -2411.2744
   6   1.0000     -88.612667     -2411.2733
   7   1.0000     -88.612338     -2411.2643
   8   1.0000     -88.612308     -2411.2635
   9   1.0000     -22.014185      -599.0364
  10   1.0000     -18.855912      -513.0954
  11   1.0000     -18.520908      -503.9795
  12   1.0000     -18.515336      -503.8279
  13   1.0000     -18.515176      -503.8236
  14   1.0000     -10.016258      -272.5562
  15   1.0000     -10.016150      -272.5533
  16   1.0000     -10.013511      -272.4815
  17   1.0000     -10.013397      -272.4784
  18   1.0000     -10.005238      -272.2564
  19   1.0000     -10.005154      -272.2541
  20   1.0000      -9.993396      -271.9341
  21   1.0000      -9.993366      -271.9333
  22   1.0000      -9.991599      -271.8852
  23   1.0000      -9.991569      -271.8844
  24   1.0000      -7.730975      -210.3705
  25   1.0000      -7.730889      -210.3682
  26   1.0000      -7.730469      -210.3568
  27   1.0000      -7.730422      -210.3555
  28   1.0000      -7.667522      -208.6439
  29   1.0000      -7.667511      -208.6436
  30   1.0000      -7.666567      -208.6179
  31   1.0000      -7.666508      -208.6163
  32   1.0000      -5.696228      -155.0023
  33   1.0000      -5.696148      -155.0001
  34   1.0000      -5.695778      -154.9900
  35   1.0000      -5.695732      -154.9887
  36   1.0000      -5.692467      -154.8999
  37   1.0000      -5.692376      -154.8974
  38   1.0000      -5.691694      -154.8789
  39   1.0000      -5.691647      -154.8776
  40   1.0000      -5.685746      -154.7170
  41   1.0000      -5.685650      -154.7144
  42   1.0000      -5.685135      -154.7004
  43   1.0000      -5.685095      -154.6993
  44   1.0000      -5.631956      -153.2533
  45   1.0000      -5.631947      -153.2531
  46   1.0000      -5.631893      -153.2516
  47   1.0000      -5.631845      -153.2503
  48   1.0000      -5.626103      -153.0940
  49   1.0000      -5.626095      -153.0938
  50   1.0000      -5.625622      -153.0810
  51   1.0000      -5.625615      -153.0808
  52   1.0000      -5.624821      -153.0592
  53   1.0000      -5.624764      -153.0576
  54   1.0000      -5.624280      -153.0444
  55   1.0000      -5.624224      -153.0429
  56   1.0000      -2.408636       -65.5423
  57   1.0000      -1.449813       -39.4514
  58   1.0000      -1.439219       -39.1631
  59   1.0000      -1.437399       -39.1136
  60   1.0000      -0.643482       -17.5100
  61   1.0000      -0.643414       -17.5082
  62   1.0000      -0.617232       -16.7957
  63   1.0000      -0.596609       -16.2346
  64   1.0000      -0.596280       -16.2256
  65   1.0000      -0.572537       -15.5795
  66   1.0000      -0.572473       -15.5778
  67   1.0000      -0.489504       -13.3201
  68   1.0000      -0.488938       -13.3047
  69   1.0000      -0.487359       -13.2617
  70   1.0000      -0.487011       -13.2523
  71   1.0000      -0.422710       -11.5025
  72   1.0000      -0.421214       -11.4618
  73   1.0000      -0.409244       -11.1361
  74   1.0000      -0.404838       -11.0162
  75   1.0000      -0.377560       -10.2739
  76   1.0000      -0.374460       -10.1896
  77   1.0000      -0.292309        -7.9541
  78   1.0000      -0.292199        -7.9511
  79   1.0000      -0.277590        -7.5536
  80   1.0000      -0.277422        -7.5490
  81   1.0000      -0.258242        -7.0271
  82   1.0000      -0.253958        -6.9105
  83   1.0000      -0.240871        -6.5544
  84   1.0000      -0.238017        -6.4768
  85   1.0000      -0.196071        -5.3354
  86   1.0000      -0.195384        -5.3167
  87   1.0000      -0.189552        -5.1580
  88   1.0000      -0.187550        -5.1035
  89   1.0000      -0.183654        -4.9975
  90   1.0000      -0.182683        -4.9711
  91   1.0000      -0.179387        -4.8814
  92   1.0000      -0.155236        -4.2242
  93   1.0000      -0.144305        -3.9267
  94   1.0000      -0.144128        -3.9219
  95   1.0000      -0.142774        -3.8851
  96   1.0000      -0.141744        -3.8571
  97   1.0000      -0.098161        -2.6711
  98   1.0000      -0.096749        -2.6327
  99   1.0000      -0.088044        -2.3958
 100   1.0000      -0.087426        -2.3790
 101   1.0000      -0.079948        -2.1755
 102   1.0000      -0.079608        -2.1662
 103   1.0000      -0.070426        -1.9164
 104   1.0000      -0.051204        -1.3933
 105   1.0000      -0.042641        -1.1603
 106   1.0000      -0.040752        -1.1089
 107   1.0000      -0.032732        -0.8907
 108   1.0000      -0.028002        -0.7620
 109   1.0000      -0.013841        -0.3766
 110   1.0000      -0.004212        -0.1146
 111   1.0000      -0.001125        -0.0306
 112   1.0000       0.008626         0.2347
 113   1.0000       0.016884         0.4594
 114   1.0000       0.017974         0.4891
 115   1.0000       0.032662         0.8888
 116   1.0000       0.058408         1.5894
 117   0.0000       0.188754         5.1362
 118   0.0000       0.195467         5.3189
 119   0.0000       0.196777         5.3546
 120   0.0000       0.197224         5.3667
 121   0.0000       0.209355         5.6968

                 SPIN DOWN ORBITALS
  NO   OCC          E(Eh)            E(eV)
   0   1.0000    -196.638449     -5350.8042
   1   1.0000     -88.678065     -2413.0528
   2   1.0000     -88.677952     -2413.0498
   3   1.0000     -88.676469     -2413.0094
   4   1.0000     -88.676434     -2413.0084
   5   1.0000     -88.612891     -2411.2794
   6   1.0000     -88.612849     -2411.2782
   7   1.0000     -88.612481     -2411.2682
   8   1.0000     -88.612452     -2411.2674
   9   1.0000     -21.999678      -598.6417
  10   1.0000     -18.859439      -513.1914
  11   1.0000     -18.515832      -503.8414
  12   1.0000     -18.499949      -503.4092
  13   1.0000     -18.499292      -503.3913
  14   1.0000     -10.016251      -272.5561
  15   1.0000     -10.016142      -272.5531
  16   1.0000     -10.013511      -272.4815
  17   1.0000     -10.013397      -272.4784
  18   1.0000     -10.005238      -272.2564
  19   1.0000     -10.005154      -272.2541
  20   1.0000      -9.992909      -271.9209
  21   1.0000      -9.992879      -271.9201
  22   1.0000      -9.991469      -271.8817
  23   1.0000      -9.991439      -271.8809
  24   1.0000      -7.730979      -210.3706
  25   1.0000      -7.730893      -210.3683
  26   1.0000      -7.730490      -210.3573
  27   1.0000      -7.730443      -210.3560
  28   1.0000      -7.667694      -208.6486
  29   1.0000      -7.667683      -208.6483
  30   1.0000      -7.666692      -208.6213
  31   1.0000      -7.666634      -208.6197
  32   1.0000      -5.696237      -155.0025
  33   1.0000      -5.696157      -155.0003
  34   1.0000      -5.695798      -154.9905
  35   1.0000      -5.695752      -154.9893
  36   1.0000      -5.692479      -154.9002
  37   1.0000      -5.692388      -154.8977
  38   1.0000      -5.691715      -154.8794
  39   1.0000      -5.691668      -154.8782
  40   1.0000      -5.685741      -154.7169
  41   1.0000      -5.685646      -154.7143
  42   1.0000      -5.685174      -154.7014
  43   1.0000      -5.685134      -154.7004
  44   1.0000      -5.632117      -153.2577
  45   1.0000      -5.632110      -153.2575
  46   1.0000      -5.632107      -153.2574
  47   1.0000      -5.632062      -153.2562
  48   1.0000      -5.626572      -153.1068
  49   1.0000      -5.626565      -153.1066
  50   1.0000      -5.625782      -153.0853
  51   1.0000      -5.625775      -153.0851
  52   1.0000      -5.625118      -153.0673
  53   1.0000      -5.625064      -153.0658
  54   1.0000      -5.624405      -153.0478
  55   1.0000      -5.624348      -153.0463
  56   1.0000      -2.364868       -64.3513
  57   1.0000      -1.431159       -38.9438
  58   1.0000      -1.378713       -37.5167
  59   1.0000      -1.376720       -37.4625
  60   1.0000      -0.643430       -17.5086
  61   1.0000      -0.643359       -17.5067
  62   1.0000      -0.624775       -17.0010
  63   1.0000      -0.596507       -16.2318
  64   1.0000      -0.596158       -16.2223
  65   1.0000      -0.572435       -15.5768
  66   1.0000      -0.572367       -15.5749
  67   1.0000      -0.489592       -13.3225
  68   1.0000      -0.489044       -13.3076
  69   1.0000      -0.487232       -13.2583
  70   1.0000      -0.486856       -13.2480
  71   1.0000      -0.422865       -11.5067
  72   1.0000      -0.421354       -11.4656
  73   1.0000      -0.409364       -11.1394
  74   1.0000      -0.404970       -11.0198
  75   1.0000      -0.377471       -10.2715
  76   1.0000      -0.374434       -10.1889
  77   1.0000      -0.292283        -7.9534
  78   1.0000      -0.292171        -7.9504
  79   1.0000      -0.277539        -7.5522
  80   1.0000      -0.277376        -7.5478
  81   1.0000      -0.258070        -7.0224
  82   1.0000      -0.253933        -6.9099
  83   1.0000      -0.240757        -6.5513
  84   1.0000      -0.237934        -6.4745
  85   1.0000      -0.195792        -5.3278
  86   1.0000      -0.195294        -5.3142
  87   1.0000      -0.189052        -5.1444
  88   1.0000      -0.187536        -5.1031
  89   1.0000      -0.183403        -4.9907
  90   1.0000      -0.182597        -4.9687
  91   1.0000      -0.177318        -4.8251
  92   1.0000      -0.154294        -4.1985
  93   1.0000      -0.144096        -3.9211
  94   1.0000      -0.144024        -3.9191
  95   1.0000      -0.142379        -3.8743
  96   1.0000      -0.141637        -3.8541
  97   1.0000      -0.097461        -2.6520
  98   1.0000      -0.095161        -2.5895
  99   1.0000      -0.088226        -2.4008
 100   1.0000      -0.086656        -2.3580
 101   1.0000      -0.081572        -2.2197
 102   1.0000      -0.079573        -2.1653
 103   1.0000      -0.071682        -1.9506
 104   1.0000      -0.049150        -1.3374
 105   1.0000      -0.043170        -1.1747
 106   1.0000      -0.036810        -1.0017
 107   1.0000      -0.031948        -0.8693
 108   1.0000      -0.027858        -0.7580
 109   1.0000      -0.012520        -0.3407
 110   1.0000      -0.005569        -0.1515
 111   1.0000      -0.000769        -0.0209
 112   1.0000       0.010215         0.2780
 113   1.0000       0.017509         0.4765
 114   1.0000       0.032947         0.8965
 115   1.0000       0.057654         1.5688
 116   0.0000       0.181822         4.9476
 117   0.0000       0.190078         5.1723
 118   0.0000       0.195768         5.3271
 119   0.0000       0.197109         5.3636
 120   0.0000       0.197561         5.3759

MULLIKEN ATOMIC CHARGES AND SPIN POPULATIONS
--------------------------------------------
   0 V :    0.459815    1.191283
   1 S :   -0.248888   -0.021789
   2 S :   -0.267856   -0.028484
   3 S :   -0.268172   -0.028565
   4 S :   -0.249158   -0.021511
   5 O :   -0.508549   -0.136853
   6 C :   -0.155522    0.002588
   7 C :   -0.066015    0.019876
   8 C :   -0.066273    0.019967
   9 C :   -0.154874    0.002579
  10 S :   -0.022109   -0.001126
  11 S :   -0.068552    0.001087
  12 S :   -0.022224   -0.001158
  13 S :   -0.068773    0.001055
  14 C :   -0.313756    0.000425
  15 C :   -0.367074    0.000017
  16 C :   -0.366983   -0.000012
  17 C :   -0.312437    0.000456
  18 C :   -0.080689    0.000154
  19 H :    0.142667   -0.000153
  20 H :    0.097036    0.000020
  21 H :    0.042912    0.000067
  22 H :    0.078937    0.000020
  23 H :    0.103694    0.000017
  24 H :    0.149656   -0.000042
  25 C :   -0.080549    0.000161
  26 H :    0.103437    0.000025
  27 H :    0.149284   -0.000046
  28 H :    0.078646    0.000012
  29 H :    0.042919    0.000062
  30 H :    0.142750   -0.000159
  31 H :    0.096698    0.000027
Sum of atomic charges         :   -2.0000000

LOEWDIN ATOMIC CHARGES AND SPIN POPULATIONS
-------------------------------------------
   0 V :   -0.251373    1.143634
   1 S :    0.108191   -0.011478
   2 S :    0.069015   -0.021637
   3 S :    0.068652   -0.021693
   4 S :    0.107980   -0.011309
   5 O :   -0.352674   -0.122395
   6 C :   -0.555482    0.004465
   7 C :   -0.539925    0.019405
   8 C :   -0.539657    0.019387
   9 C :   -0.555296    0.004456
  10 S :    0.344137   -0.001834
  11 S :    0.326945    0.000146
  12 S :    0.344001   -0.001859
  13 S :    0.326971    0.000139
  14 C :   -0.289748    0.000324
  15 C :   -0.298813    0.000001
  16 C :   -0.298886   -0.000008
  17 C :   -0.289863    0.000341
  18 C :   -0.185923   -0.000045
  19 H :    0.063624   -0.000074
  20 H :    0.046288   -0.000008
  21 H :    0.045998    0.000033
  22 H :    0.053148    0.000021
  23 H :    0.047277    0.000010
  24 H :    0.067556    0.000020
  25 C :   -0.185932   -0.000049
  26 H :    0.047238    0.000015
  27 H :    0.067499    0.000020
  28 H :    0.053155    0.000019
  29 H :    0.045980    0.000033
  30 H :    0.063693   -0.000075
  31 H :    0.046223   -0.000003

  Mayer bond orders larger than 0.100000
B(  0-V ,  1-S ) :   0.8721 B(  0-V ,  2-S ) :   0.6980 B(  0-V ,  3-S ) :   0.6980
B(  0-V ,  4-S ) :   0.8720 B(  0-V ,  5-O ) :   2.1028 B(  1-S ,  8-C ) :   1.0366
B(  2-S ,  6-C ) :   1.2023 B(  3-S ,  9-C ) :   1.2026 B(  4-S ,  7-C ) :   1.0367
B(  6-C ,  7-C ) :   1.5161 B(  6-C , 10-S ) :   0.9702 B(  7-C , 11-S ) :   0.9365
B(  8-C ,  9-C ) :   1.5165 B(  8-C , 13-S ) :   0.9365 B(  9-C , 12-S ) :   0.9700
B( 10-S , 16-C ) :   1.0333 B( 11-S , 14-C ) :   0.9689 B( 12-S , 15-C ) :   1.0335
B( 13-S , 17-C ) :   0.9691 B( 14-C , 18-C ) :   0.8900 B( 14-C , 23-H ) :   0.9687
B( 14-C , 24-H ) :   0.9735 B( 15-C , 25-C ) :   0.8645 B( 15-C , 30-H ) :   0.9754
B( 15-C , 31-H ) :   0.9719 B( 16-C , 18-C ) :   0.8644 B( 16-C , 19-H ) :   0.9755
B( 16-C , 20-H ) :   0.9718 B( 17-C , 25-C ) :   0.8902 B( 17-C , 26-H ) :   0.9689
B( 17-C , 27-H ) :   0.9732 B( 18-C , 21-H ) :   0.9505 B( 18-C , 22-H ) :   0.9740
B( 25-C , 28-H ) :   0.9740 B( 25-C , 29-H ) :   0.9506

FINAL SINGLE POINT ENERGY     -4592.687129134415

DIPOLE MOMENT
-------------
                                X             Y             Z
Electronic contribution:    -10.06636       0.49103      24.73870
Nuclear contribution   :     11.21086      -0.54816     -27.55800
                        -----------------------------------------
Total Dipole Moment    :      1.14450      -0.05713      -2.81930
                        -----------------------------------------
Magnitude (a.u.)       :      3.04328
Magnitude (Debye)      :      7.73542

Rotational constants in cm-1:     0.012732     0.002547     0.002429
Rotational constants in MHz :   381.684529    76.349646    72.812116

                             ****ORCA TERMINATED NORMALLY****
TOTAL RUN TIME: 0 days 0 hours 27 minutes 33 seconds 649 msec
