                         Program Version 5.0.4 -  RELEASE  -
|  1> ! nofrozencore ReducedPop printbasis
|  2> ! B3LYP TZVP
|  3>
|  4> %basis
|  5> newgto V "CP(PPP)" end
|  6> end
|  7>
|  8> %pal
|  9> nprocs 4
| 10> end
| 11>
| 12> % sym SymThresh 1e-2 end
| 13> * xyz -2 2
| 14> V 0.8961999854092428 -0.662144187926313 0.05015361850232222
| 15> S -1.0911010698121368 -2.088659719906292 0.19587872943681464
| 16> S 0.30072728970683543 -0.3751955352300112 -2.307962525107166
| 17> S 0.28001054962879063 -0.05179297374338266 2.340768178316127
| 18> S 1.697723502885715 1.6442645042841415 -0.16322684769878976
| 19> O 2.175608099324957 -1.614504202194102 0.12350529449879886
| 20> C 1.1910093690416834 1.07004948300312 -2.8035204640089018
| 21> C 1.771927307415544 1.9125907987545583 -1.9089331955368432
| 22> C -1.4417485905704521 -2.154769327180678 1.927280424561627
| 23> C -0.8701547110488327 -1.3056666845656875 2.821853897760259
| 24> S 1.2411177476318158 1.353909422347216 -4.584470409772295
| 25> S 2.6505616585193508 3.407251703136113 -2.408267297864837
| 26> S -1.253225730061145 -1.344853208789922 4.5844889703689065
| 27> S -2.6437222346560993 -3.4118831206435214 2.4083448806648917
| 28> C 1.3053030035494297 4.442890542452458 -3.104793849555449
| 29> C -3.0140997084507917 -0.7946939462663608 4.634485609933475
| 30> C 0.1796960080730317 2.8632177986030913 -4.814253372062493
| 31> C -4.103630699924638 -2.409804199643502 2.93454139607496
| 32> C 0.9017102280616215 4.202929407739239 -4.5407880341380995
| 33> H -0.5044268330831148 2.7758306928255987 -4.280762501014754
| 34> H -0.022358603657734184 2.843555467187584 -5.449505164580732
| 35> H 0.2159060279130085 5.004339742190251 -4.857120331690274
| 36> H 1.7895708963483856 4.27186101294448 -5.180497334743625
| 37> H 1.8272791852873984 5.859535992902227 -2.97250678891752
| 38> H 0.28126361912010256 4.345106600576859 -2.292915502996758
| 39> C -4.065752402580834 -1.8676845489707115 4.364229953411398
| 40> H -4.931226384858299 -3.061423477120004 2.826551877726255
| 41> H -4.214564661005166 -1.613980163636628 2.2222055287920366
| 42> H -3.917713679246669 -2.6999525517630603 5.060970389663397
| 43> H -5.055213265604536 -1.43622424848317 4.585965244417567
| 44> H -3.112824852377565 0.052099095586084096 3.923216456211116
| 45> H -3.156392659358294 -0.38471561914451347 5.6775054396234035
| 46> *
| 47>
| 48> % eprnmr
| 49> gtensor true
| 50> Nuclei = all H {aiso,adip,aorb,fgrad,rho}
| 51> Nuclei = all V {aiso,adip,aorb,fgrad,rho}
| 52> end
| 53>
| 54>                          ****END OF INPUT****

CARTESIAN COORDINATES (ANGSTROEM)
---------------------------------
  V      0.897183   -0.662810    0.050142
  S     -1.090118   -2.089325    0.195867
  S      0.301710   -0.375861   -2.307975
  S      0.280993   -0.052458    2.340756
  S      1.698706    1.643599   -0.163239
  O      2.176591   -1.615170    0.123493
  C      1.191992    1.069384   -2.803533
  C      1.772910    1.911925   -1.908945
  C     -1.440766   -2.155435    1.927268
  C     -0.869172   -1.306332    2.821842
  S      1.242100    1.353244   -4.584482
  S      2.651544    3.406586   -2.408279
  S     -1.252243   -1.345519    4.584477
  S     -2.642740   -3.412548    2.408333
  C      1.306286    4.442225   -3.104806
  C     -3.013117   -0.795359    4.634474
  C      0.180679    2.862552   -4.814265
  C     -4.102648   -2.410470    2.934529
  C      0.902693    4.202264   -4.540800
  H     -0.503444    2.775165   -4.280775
  H     -0.021376    2.842890   -5.449517
  H      0.216889    5.003674   -4.857132
  H      1.790554    4.271196   -5.180509
  H      1.828262    5.858871   -2.972519
  H      0.282246    4.344441   -2.292928
  C     -4.064770   -1.868350    4.364218
  H     -4.930244   -3.062089    2.826540
  H     -4.213582   -1.614646    2.222193
  H     -3.916731   -2.700618    5.060958
  H     -5.054231   -1.436890    4.585953
  H     -3.111842    0.051434    3.923204
  H     -3.155410   -0.385381    5.677493

 Total Charge           Charge          ....   -2
 Multiplicity           Mult            ....    2
 Number of Electrons    NEL             ....  233
 Basis Dimension        Dim             ....  517

ORBITAL ENERGIES
----------------
                 SPIN UP ORBITALS
  NO   OCC          E(Eh)            E(eV)
   0   1.0000    -196.641910     -5350.8984
   1   1.0000     -88.682813     -2413.1820
   2   1.0000     -88.678166     -2413.0556
   3   1.0000     -88.677635     -2413.0411
   4   1.0000     -88.677281     -2413.0315
   5   1.0000     -88.615185     -2411.3418
   6   1.0000     -88.614102     -2411.3123
   7   1.0000     -88.613393     -2411.2930
   8   1.0000     -88.613314     -2411.2909
   9   1.0000     -22.017718      -599.1326
  10   1.0000     -18.858954      -513.1782
  11   1.0000     -18.524545      -504.0785
  12   1.0000     -18.518766      -503.9212
  13   1.0000     -18.518730      -503.9203
  14   1.0000     -10.066226      -273.9159
  15   1.0000     -10.021191      -272.6905
  16   1.0000     -10.010901      -272.4105
  17   1.0000     -10.008942      -272.3572
  18   1.0000     -10.005397      -272.2607
  19   1.0000      -9.995919      -272.0028
  20   1.0000      -9.994415      -271.9619
  21   1.0000      -9.993029      -271.9242
  22   1.0000      -9.992294      -271.9042
  23   1.0000      -9.964346      -271.1436
  24   1.0000      -7.736028      -210.5080
  25   1.0000      -7.731853      -210.3944
  26   1.0000      -7.731261      -210.3783
  27   1.0000      -7.730950      -210.3698
  28   1.0000      -7.669584      -208.7000
  29   1.0000      -7.668513      -208.6708
  30   1.0000      -7.667833      -208.6523
  31   1.0000      -7.667737      -208.6497
  32   1.0000      -5.701380      -155.1424
  33   1.0000      -5.697358      -155.0330
  34   1.0000      -5.697030      -155.0241
  35   1.0000      -5.696513      -155.0100
  36   1.0000      -5.696188      -155.0011
  37   1.0000      -5.693253      -154.9213
  38   1.0000      -5.692619      -154.9040
  39   1.0000      -5.692299      -154.8953
  40   1.0000      -5.690728      -154.8526
  41   1.0000      -5.686626      -154.7410
  42   1.0000      -5.685995      -154.7238
  43   1.0000      -5.685713      -154.7161
  44   1.0000      -5.634443      -153.3210
  45   1.0000      -5.633406      -153.2928
  46   1.0000      -5.632671      -153.2728
  47   1.0000      -5.632561      -153.2698
  48   1.0000      -5.627985      -153.1453
  49   1.0000      -5.627594      -153.1346
  50   1.0000      -5.626937      -153.1167
  51   1.0000      -5.626466      -153.1039
  52   1.0000      -5.626280      -153.0989
  53   1.0000      -5.626196      -153.0966
  54   1.0000      -5.625807      -153.0860
  55   1.0000      -5.625716      -153.0835
  56   1.0000      -2.411409       -65.6178
  57   1.0000      -1.452766       -39.5318
  58   1.0000      -1.441200       -39.2170
  59   1.0000      -1.440118       -39.1876
  60   1.0000      -0.665398       -18.1064
  61   1.0000      -0.644836       -17.5469
  62   1.0000      -0.620009       -16.8713
  63   1.0000      -0.607889       -16.5415
  64   1.0000      -0.594762       -16.1843
  65   1.0000      -0.581132       -15.8134
  66   1.0000      -0.576862       -15.6972
  67   1.0000      -0.508950       -13.8492
  68   1.0000      -0.492646       -13.4056
  69   1.0000      -0.490831       -13.3562
  70   1.0000      -0.488150       -13.2832
  71   1.0000      -0.441309       -12.0086
  72   1.0000      -0.423088       -11.5128
  73   1.0000      -0.411584       -11.1998
  74   1.0000      -0.401162       -10.9162
  75   1.0000      -0.375940       -10.2298
  76   1.0000      -0.371948       -10.1212
  77   1.0000      -0.330659        -8.9977
  78   1.0000      -0.293981        -7.9996
  79   1.0000      -0.279663        -7.6100
  80   1.0000      -0.278490        -7.5781
  81   1.0000      -0.261935        -7.1276
  82   1.0000      -0.256771        -6.9871
  83   1.0000      -0.242143        -6.5890
  84   1.0000      -0.239170        -6.5081
  85   1.0000      -0.209906        -5.7118
  86   1.0000      -0.196081        -5.3356
  87   1.0000      -0.193725        -5.2715
  88   1.0000      -0.192221        -5.2306
  89   1.0000      -0.184796        -5.0286
  90   1.0000      -0.182995        -4.9796
  91   1.0000      -0.159399        -4.3375
  92   1.0000      -0.153446        -4.1755
  93   1.0000      -0.150383        -4.0921
  94   1.0000      -0.146365        -3.9828
  95   1.0000      -0.143791        -3.9128
  96   1.0000      -0.136895        -3.7251
  97   1.0000      -0.099282        -2.7016
  98   1.0000      -0.097320        -2.6482
  99   1.0000      -0.091519        -2.4903
 100   1.0000      -0.085490        -2.3263
 101   1.0000      -0.082633        -2.2485
 102   1.0000      -0.081967        -2.2304
 103   1.0000      -0.071601        -1.9484
 104   1.0000      -0.051960        -1.4139
 105   1.0000      -0.040208        -1.0941
 106   1.0000      -0.039845        -1.0842
 107   1.0000      -0.037501        -1.0205
 108   1.0000      -0.033819        -0.9203
 109   1.0000      -0.014986        -0.4078
 110   1.0000      -0.006384        -0.1737
 111   1.0000      -0.005156        -0.1403
 112   1.0000       0.004326         0.1177
 113   1.0000       0.008771         0.2387
 114   1.0000       0.014444         0.3930
 115   1.0000       0.031564         0.8589
 116   1.0000       0.057758         1.5717
 117   0.0000       0.162327         4.4172
 118   0.0000       0.188631         5.1329
 119   0.0000       0.195510         5.3201
 120   0.0000       0.196424         5.3450
 121   0.0000       0.207774         5.6538

                 SPIN DOWN ORBITALS
  NO   OCC          E(Eh)            E(eV)
   0   1.0000    -196.642051     -5350.9023
   1   1.0000     -88.682826     -2413.1824
   2   1.0000     -88.678179     -2413.0559
   3   1.0000     -88.677648     -2413.0415
   4   1.0000     -88.677295     -2413.0319
   5   1.0000     -88.615343     -2411.3461
   6   1.0000     -88.614259     -2411.3166
   7   1.0000     -88.613554     -2411.2974
   8   1.0000     -88.613475     -2411.2953
   9   1.0000     -22.003051      -598.7334
  10   1.0000     -18.862532      -513.2756
  11   1.0000     -18.519416      -503.9389
  12   1.0000     -18.503280      -503.4998
  13   1.0000     -18.502595      -503.4812
  14   1.0000     -10.066222      -273.9158
  15   1.0000     -10.021188      -272.6904
  16   1.0000     -10.010897      -272.4103
  17   1.0000     -10.008942      -272.3572
  18   1.0000     -10.005397      -272.2607
  19   1.0000      -9.995663      -271.9958
  20   1.0000      -9.994163      -271.9550
  21   1.0000      -9.992775      -271.9172
  22   1.0000      -9.992041      -271.8973
  23   1.0000      -9.964343      -271.1436
  24   1.0000      -7.736042      -210.5084
  25   1.0000      -7.731867      -210.3948
  26   1.0000      -7.731275      -210.3787
  27   1.0000      -7.730964      -210.3702
  28   1.0000      -7.669731      -208.7040
  29   1.0000      -7.668659      -208.6748
  30   1.0000      -7.667982      -208.6564
  31   1.0000      -7.667887      -208.6538
  32   1.0000      -5.701396      -155.1429
  33   1.0000      -5.697379      -155.0336
  34   1.0000      -5.697047      -155.0245
  35   1.0000      -5.696530      -155.0105
  36   1.0000      -5.696205      -155.0016
  37   1.0000      -5.693273      -154.9218
  38   1.0000      -5.692639      -154.9046
  39   1.0000      -5.692319      -154.8959
  40   1.0000      -5.690743      -154.8530
  41   1.0000      -5.686643      -154.7414
  42   1.0000      -5.686012      -154.7242
  43   1.0000      -5.685730      -154.7166
  44   1.0000      -5.634614      -153.3256
  45   1.0000      -5.633576      -153.2974
  46   1.0000      -5.632843      -153.2775
  47   1.0000      -5.632733      -153.2745
  48   1.0000      -5.628365      -153.1556
  49   1.0000      -5.627735      -153.1385
  50   1.0000      -5.627322      -153.1272
  51   1.0000      -5.626675      -153.1096
  52   1.0000      -5.626600      -153.1076
  53   1.0000      -5.626591      -153.1073
  54   1.0000      -5.625943      -153.0897
  55   1.0000      -5.625852      -153.0872
  56   1.0000      -2.367233       -64.4157
  57   1.0000      -1.433940       -39.0195
  58   1.0000      -1.379798       -37.5462
  59   1.0000      -1.379144       -37.5284
  60   1.0000      -0.665380       -18.1059
  61   1.0000      -0.644786       -17.5455
  62   1.0000      -0.627658       -17.0795
  63   1.0000      -0.607721       -16.5369
  64   1.0000      -0.594564       -16.1789
  65   1.0000      -0.581085       -15.8121
  66   1.0000      -0.576856       -15.6971
  67   1.0000      -0.508919       -13.8484
  68   1.0000      -0.492671       -13.4063
  69   1.0000      -0.490867       -13.3572
  70   1.0000      -0.488167       -13.2837
  71   1.0000      -0.441573       -12.0158
  72   1.0000      -0.423369       -11.5205
  73   1.0000      -0.411620       -11.2007
  74   1.0000      -0.401255       -10.9187
  75   1.0000      -0.375923       -10.2294
  76   1.0000      -0.371958       -10.1215
  77   1.0000      -0.330651        -8.9975
  78   1.0000      -0.293964        -7.9992
  79   1.0000      -0.279635        -7.6093
  80   1.0000      -0.278471        -7.5776
  81   1.0000      -0.261721        -7.1218
  82   1.0000      -0.256725        -6.9858
  83   1.0000      -0.242050        -6.5865
  84   1.0000      -0.239112        -6.5066
  85   1.0000      -0.209833        -5.7098
  86   1.0000      -0.195595        -5.3224
  87   1.0000      -0.193661        -5.2698
  88   1.0000      -0.192165        -5.2291
  89   1.0000      -0.184715        -5.0264
  90   1.0000      -0.181025        -4.9259
  91   1.0000      -0.159211        -4.3324
  92   1.0000      -0.152934        -4.1615
  93   1.0000      -0.150018        -4.0822
  94   1.0000      -0.146172        -3.9775
  95   1.0000      -0.143570        -3.9067
  96   1.0000      -0.136687        -3.7195
  97   1.0000      -0.097888        -2.6637
  98   1.0000      -0.096710        -2.6316
  99   1.0000      -0.091619        -2.4931
 100   1.0000      -0.085480        -2.3260
 101   1.0000      -0.083836        -2.2813
 102   1.0000      -0.082224        -2.2374
 103   1.0000      -0.072897        -1.9836
 104   1.0000      -0.047844        -1.3019
 105   1.0000      -0.040252        -1.0953
 106   1.0000      -0.039175        -1.0660
 107   1.0000      -0.036504        -0.9933
 108   1.0000      -0.033770        -0.9189
 109   1.0000      -0.014079        -0.3831
 110   1.0000      -0.007645        -0.2080
 111   1.0000      -0.004229        -0.1151
 112   1.0000       0.005162         0.1405
 113   1.0000       0.009681         0.2634
 114   1.0000       0.031812         0.8656
 115   1.0000       0.056965         1.5501
 116   0.0000       0.162243         4.4149
 117   0.0000       0.183555         4.9948
 118   0.0000       0.189932         5.1683
 119   0.0000       0.195773         5.3272
 120   0.0000       0.197085         5.3630

MULLIKEN ATOMIC CHARGES AND SPIN POPULATIONS
--------------------------------------------
   0 V :    0.446785    1.199134
   1 S :   -0.254055   -0.024470
   2 S :   -0.248724   -0.023761
   3 S :   -0.252412   -0.024415
   4 S :   -0.248843   -0.023604
   5 O :   -0.505324   -0.138888
   6 C :   -0.105943    0.008915
   7 C :   -0.131535    0.008771
   8 C :   -0.114406    0.008977
   9 C :   -0.117656    0.008888
  10 S :   -0.066066   -0.000198
  11 S :   -0.007527   -0.000103
  12 S :   -0.041333   -0.000198
  13 S :   -0.047009   -0.000230
  14 C :   -0.262647    0.000252
  15 C :   -0.331813    0.000293
  16 C :   -0.474891    0.000340
  17 C :   -0.343815    0.000321
  18 C :   -0.093161    0.000170
  19 H :    0.184007   -0.000112
  20 H :    0.254229   -0.000012
  21 H :    0.051504    0.000035
  22 H :    0.082607    0.000015
  23 H :   -0.019509   -0.000014
  24 H :    0.110435   -0.000135
  25 C :   -0.085135    0.000138
  26 H :    0.111324    0.000028
  27 H :    0.149707   -0.000108
  28 H :    0.078814    0.000011
  29 H :    0.044993    0.000036
  30 H :    0.144444   -0.000107
  31 H :    0.092955    0.000028
Sum of atomic charges         :   -2.0000000

LOEWDIN ATOMIC CHARGES AND SPIN POPULATIONS
-------------------------------------------
   0 V :   -0.242629    1.153149
   1 S :    0.088085   -0.016587
   2 S :    0.092384   -0.016047
   3 S :    0.088981   -0.016544
   4 S :    0.090398   -0.015996
   5 O :   -0.350071   -0.124333
   6 C :   -0.546589    0.010090
   7 C :   -0.555711    0.009905
   8 C :   -0.552066    0.009968
   9 C :   -0.553084    0.009986
  10 S :    0.343771   -0.001039
  11 S :    0.352762   -0.000968
  12 S :    0.337700   -0.001045
  13 S :    0.336646   -0.001059
  14 C :   -0.315925    0.000157
  15 C :   -0.299329    0.000168
  16 C :   -0.133405    0.000152
  17 C :   -0.286901    0.000179
  18 C :   -0.170913   -0.000032
  19 H :    0.031561   -0.000005
  20 H :   -0.114590    0.000006
  21 H :    0.050513    0.000017
  22 H :    0.056603    0.000013
  23 H :    0.025205   -0.000019
  24 H :    0.085340   -0.000069
  25 C :   -0.184672   -0.000040
  26 H :    0.042368    0.000009
  27 H :    0.063282   -0.000025
  28 H :    0.053548    0.000011
  29 H :    0.046961    0.000018
  30 H :    0.068535   -0.000030
  31 H :    0.051243    0.000009

  Mayer bond orders larger than 0.100000
B(  0-V ,  1-S ) :   0.7902 B(  0-V ,  2-S ) :   0.7861 B(  0-V ,  3-S ) :   0.7932
B(  0-V ,  4-S ) :   0.7869 B(  0-V ,  5-O ) :   2.1090 B(  1-S ,  8-C ) :   1.1370
B(  2-S ,  6-C ) :   1.1445 B(  3-S ,  9-C ) :   1.1366 B(  4-S ,  7-C ) :   1.1368
B(  6-C ,  7-C ) :   1.5058 B(  6-C , 10-S ) :   0.9561 B(  7-C , 11-S ) :   0.9542
B(  8-C ,  9-C ) :   1.5182 B(  8-C , 13-S ) :   0.9542 B(  9-C , 12-S ) :   0.9544
B( 10-S , 16-C ) :   0.9464 B( 11-S , 14-C ) :   1.0100 B( 12-S , 15-C ) :   1.0062
B( 13-S , 17-C ) :   1.0033 B( 14-C , 18-C ) :   0.9099 B( 14-C , 23-H ) :   0.9168
B( 14-C , 24-H ) :   0.9437 B( 15-C , 25-C ) :   0.8807 B( 15-C , 30-H ) :   0.9730
B( 15-C , 31-H ) :   0.9683 B( 16-C , 18-C ) :   0.8271 B( 16-C , 19-H ) :   0.9977
B( 16-C , 20-H ) :   0.9593 B( 17-C , 25-C ) :   0.8756 B( 17-C , 26-H ) :   0.9715
B( 17-C , 27-H ) :   0.9771 B( 18-C , 21-H ) :   0.9532 B( 18-C , 22-H ) :   0.9709
B( 25-C , 28-H ) :   0.9740 B( 25-C , 29-H ) :   0.9526

FINAL SINGLE POINT ENERGY     -4592.323169740001

DIPOLE MOMENT
-------------
                                X             Y             Z
Electronic contribution:     21.06046     -16.66416       0.71397
Nuclear contribution   :    -23.65409      18.02798      -0.92337
                        -----------------------------------------
Total Dipole Moment    :     -2.59362       1.36381      -0.20941
                        -----------------------------------------
Magnitude (a.u.)       :      2.93781
Magnitude (Debye)      :      7.46731

Rotational constants in cm-1:     0.012769     0.002548     0.002431
Rotational constants in MHz :   382.809027    76.396835    72.880217

                             ****ORCA TERMINATED NORMALLY****
TOTAL RUN TIME: 0 days 0 hours 43 minutes 0 seconds 300 msec
