                         Program Version 5.0.4 -  RELEASE  -
|  1> ! nofrozencore ReducedPop printbasis
|  2> ! B3LYP TZVP
|  3>
|  4> %basis
|  5> newgto V "CP(PPP)" end
|  6> end
|  7>
|  8> %pal
|  9> nprocs 8
| 10> end
| 11>
| 12> % sym SymThresh 1e-2 end
| 13> * xyz -2 2
| 14> V 0.7016692293960255 -0.7387055440016878 0.4568291416864274
| 15> S -0.24184889835767973 0.8438776024352037 2.163451607176687
| 16> S -1.4167775240427996 -1.840311724791801 0.5598468895385419
| 17> S 1.8591313081596468 1.3888921902800981 -0.20526686220515855
| 18> S 0.766890236773699 -1.3004329180406924 -1.867910342911123
| 19> O 1.6592991828095658 -1.893754868670638 1.0566589134033566
| 20> C -1.453989779667887 -2.686364206869361 -0.9899554494210732
| 21> C -0.556240472584451 -2.463859601855491 -1.988179360675874
| 22> C 0.8414914203006162 2.245299492313541 2.189243369198136
| 23> C 1.730379845445222 2.4751999360428276 1.188881929706879
| 24> S -2.823965453009966 -3.8491086889276036 -1.0887171272269218
| 25> S -0.5842080694287829 -3.2894222866687084 -3.5867388549164687
| 26> S 2.7978267364068463 3.9386887633051413 1.2135851175120895
| 27> S 0.6939012735471651 3.3935367648365444 3.583395892894244
| 28> C -2.1761685620255355 -2.727196884958712 -4.326376276352903
| 29> C 1.5952672248761894 5.308469243221245 0.8846851881764983
| 30> C -3.8758417547348576 -3.158062152814458 -2.4354671140220163
| 31> C -0.09617435104089204 4.873597813570695 2.799337138120881
| 32> C -3.428867131965689 -3.470988602217456 -3.863376067703725
| 33> H -3.9512336180662797 -2.0791735398750584 -2.2753452557511515
| 34> H -4.8649765758412995 -3.592301414756451 -2.2585201194818407
| 35> H -4.256175239189128 -3.200619183466777 -4.544692976344478
| 36> H -3.2678351093942597 -4.552635826240728 -3.9653707915687533
| 37> H -2.0430114167451316 -2.8697013072398856 -5.4035531247316095
| 38> H -2.265509673762671 -1.6536213668564854 -4.1399127006709255
| 39> C 0.8446803935872682 5.8571082312572065 2.0999010487640453
| 40> H -0.6111524579570748 5.385123588935157 3.6187711483796745
| 41> H -0.8568883448114338 4.49757173982241 2.111148083058159
| 42> H 1.5721485475349593 6.240231657454664 2.8292223167952613
| 43> H 0.24312849995876967 6.72163296360251 1.7653345736335453
| 44> H 0.9017962077450687 4.9423650619361705 0.12404390807811094
| 45> H 2.1919089735033133 6.108610974177498 0.4353638026833317
| 46> *
| 47>
| 48> % eprnmr
| 49> gtensor true
| 50> Nuclei = all H {aiso,adip,aorb,fgrad,rho}
| 51> Nuclei = all V {aiso,adip,aorb,fgrad,rho}
| 52> end
| 53>
| 54>                          ****END OF INPUT****

CARTESIAN COORDINATES (ANGSTROEM)
---------------------------------
  V      0.702415   -0.739484    0.457326
  S     -0.241103    0.843099    2.163948
  S     -1.416032   -1.841090    0.560344
  S      1.859877    1.388114   -0.204770
  S      0.767636   -1.301211   -1.867414
  O      1.660045   -1.894533    1.057156
  C     -1.453244   -2.687143   -0.989459
  C     -0.555495   -2.464638   -1.987683
  C      0.842237    2.244521    2.189740
  C      1.731126    2.474422    1.189379
  S     -2.823220   -3.849887   -1.088220
  S     -0.583462   -3.290201   -3.586242
  S      2.798572    3.937910    1.214082
  S      0.694647    3.392758    3.583893
  C     -2.175423   -2.727975   -4.325880
  C      1.596013    5.307691    0.885182
  C     -3.875096   -3.158840   -2.434970
  C     -0.095429    4.872820    2.799834
  C     -3.428121   -3.471767   -3.862879
  H     -3.950488   -2.079952   -2.274849
  H     -4.864231   -3.593080   -2.258023
  H     -4.255430   -3.201397   -4.544196
  H     -3.267089   -4.553414   -3.964874
  H     -2.042266   -2.870480   -5.403056
  H     -2.264764   -1.654400   -4.139416
  C      0.845426    5.856330    2.100398
  H     -0.610407    5.384345    3.619268
  H     -0.856143    4.496793    2.111645
  H      1.572894    6.239453    2.829719
  H      0.243874    6.720855    1.765831
  H      0.902542    4.941587    0.124541
  H      2.192655    6.107833    0.435861

 Total Charge           Charge          ....   -2
 Multiplicity           Mult            ....    2
 Number of Electrons    NEL             ....  233
 Basis Dimension        Dim             ....  517

ORBITAL ENERGIES
----------------
                 SPIN UP ORBITALS
  NO   OCC          E(Eh)            E(eV)
   0   1.0000    -196.642027     -5350.9016
   1   1.0000     -88.678354     -2413.0607
   2   1.0000     -88.678325     -2413.0599
   3   1.0000     -88.674899     -2412.9667
   4   1.0000     -88.674867     -2412.9658
   5   1.0000     -88.614203     -2411.3150
   6   1.0000     -88.614148     -2411.3136
   7   1.0000     -88.610182     -2411.2056
   8   1.0000     -88.610133     -2411.2043
   9   1.0000     -22.017597      -599.1293
  10   1.0000     -18.854798      -513.0651
  11   1.0000     -18.524391      -504.0743
  12   1.0000     -18.518676      -503.9188
  13   1.0000     -18.518627      -503.9175
  14   1.0000     -10.016852      -272.5724
  15   1.0000     -10.016781      -272.5705
  16   1.0000     -10.014428      -272.5064
  17   1.0000     -10.014279      -272.5024
  18   1.0000     -10.005708      -272.2692
  19   1.0000     -10.005369      -272.2599
  20   1.0000      -9.994024      -271.9512
  21   1.0000      -9.993319      -271.9320
  22   1.0000      -9.990132      -271.8453
  23   1.0000      -9.989402      -271.8254
  24   1.0000      -7.732102      -210.4012
  25   1.0000      -7.732085      -210.4007
  26   1.0000      -7.728364      -210.2995
  27   1.0000      -7.728331      -210.2986
  28   1.0000      -7.669136      -208.6878
  29   1.0000      -7.669066      -208.6859
  30   1.0000      -7.664136      -208.5517
  31   1.0000      -7.664103      -208.5508
  32   1.0000      -5.697356      -155.0329
  33   1.0000      -5.697349      -155.0327
  34   1.0000      -5.693613      -154.9311
  35   1.0000      -5.693577      -154.9301
  36   1.0000      -5.693404      -154.9254
  37   1.0000      -5.693379      -154.9247
  38   1.0000      -5.689783      -154.8269
  39   1.0000      -5.689760      -154.8262
  40   1.0000      -5.686869      -154.7476
  41   1.0000      -5.686842      -154.7468
  42   1.0000      -5.683084      -154.6446
  43   1.0000      -5.683050      -154.6437
  44   1.0000      -5.633933      -153.3071
  45   1.0000      -5.633869      -153.3054
  46   1.0000      -5.629024      -153.1735
  47   1.0000      -5.628998      -153.1728
  48   1.0000      -5.627580      -153.1342
  49   1.0000      -5.627538      -153.1331
  50   1.0000      -5.627001      -153.1185
  51   1.0000      -5.626924      -153.1164
  52   1.0000      -5.622681      -153.0009
  53   1.0000      -5.622640      -152.9998
  54   1.0000      -5.622087      -152.9848
  55   1.0000      -5.622068      -152.9843
  56   1.0000      -2.410733       -65.5994
  57   1.0000      -1.450067       -39.4583
  58   1.0000      -1.440845       -39.2074
  59   1.0000      -1.440008       -39.1846
  60   1.0000      -0.645320       -17.5600
  61   1.0000      -0.641467       -17.4552
  62   1.0000      -0.615099       -16.7377
  63   1.0000      -0.595288       -16.1986
  64   1.0000      -0.591481       -16.0950
  65   1.0000      -0.579457       -15.7678
  66   1.0000      -0.571663       -15.5557
  67   1.0000      -0.492397       -13.3988
  68   1.0000      -0.491566       -13.3762
  69   1.0000      -0.489245       -13.3130
  70   1.0000      -0.481283       -13.0964
  71   1.0000      -0.423952       -11.5363
  72   1.0000      -0.419134       -11.4052
  73   1.0000      -0.412956       -11.2371
  74   1.0000      -0.406979       -11.0745
  75   1.0000      -0.379214       -10.3189
  76   1.0000      -0.370519       -10.0823
  77   1.0000      -0.294100        -8.0029
  78   1.0000      -0.291190        -7.9237
  79   1.0000      -0.279369        -7.6020
  80   1.0000      -0.275016        -7.4836
  81   1.0000      -0.261641        -7.1196
  82   1.0000      -0.254776        -6.9328
  83   1.0000      -0.243274        -6.6198
  84   1.0000      -0.237496        -6.4626
  85   1.0000      -0.195748        -5.3266
  86   1.0000      -0.194263        -5.2862
  87   1.0000      -0.191523        -5.2116
  88   1.0000      -0.189731        -5.1628
  89   1.0000      -0.186608        -5.0779
  90   1.0000      -0.182561        -4.9677
  91   1.0000      -0.180845        -4.9210
  92   1.0000      -0.150969        -4.1081
  93   1.0000      -0.149969        -4.0809
  94   1.0000      -0.145267        -3.9529
  95   1.0000      -0.143386        -3.9017
  96   1.0000      -0.140225        -3.8157
  97   1.0000      -0.096465        -2.6249
  98   1.0000      -0.094225        -2.5640
  99   1.0000      -0.090250        -2.4558
 100   1.0000      -0.083319        -2.2672
 101   1.0000      -0.080869        -2.2005
 102   1.0000      -0.074268        -2.0209
 103   1.0000      -0.066403        -1.8069
 104   1.0000      -0.051483        -1.4009
 105   1.0000      -0.043254        -1.1770
 106   1.0000      -0.039717        -1.0807
 107   1.0000      -0.032386        -0.8813
 108   1.0000      -0.026896        -0.7319
 109   1.0000      -0.012886        -0.3506
 110   1.0000      -0.008028        -0.2184
 111   1.0000      -0.001060        -0.0288
 112   1.0000       0.004166         0.1134
 113   1.0000       0.014759         0.4016
 114   1.0000       0.016311         0.4438
 115   1.0000       0.033807         0.9199
 116   1.0000       0.059760         1.6262
 117   0.0000       0.187566         5.1039
 118   0.0000       0.195257         5.3132
 119   0.0000       0.196029         5.3342
 120   0.0000       0.196321         5.3422
 121   0.0000       0.206253         5.6124

                 SPIN DOWN ORBITALS
  NO   OCC          E(Eh)            E(eV)
   0   1.0000    -196.642165     -5350.9053
   1   1.0000     -88.678367     -2413.0610
   2   1.0000     -88.678337     -2413.0602
   3   1.0000     -88.674912     -2412.9670
   4   1.0000     -88.674880     -2412.9661
   5   1.0000     -88.614377     -2411.3198
   6   1.0000     -88.614322     -2411.3183
   7   1.0000     -88.610339     -2411.2099
   8   1.0000     -88.610291     -2411.2086
   9   1.0000     -22.002753      -598.7253
  10   1.0000     -18.858611      -513.1689
  11   1.0000     -18.519099      -503.9303
  12   1.0000     -18.502982      -503.4917
  13   1.0000     -18.502417      -503.4764
  14   1.0000     -10.016847      -272.5723
  15   1.0000     -10.016775      -272.5703
  16   1.0000     -10.014425      -272.5064
  17   1.0000     -10.014277      -272.5023
  18   1.0000     -10.005709      -272.2692
  19   1.0000     -10.005368      -272.2599
  20   1.0000      -9.993698      -271.9423
  21   1.0000      -9.992995      -271.9232
  22   1.0000      -9.989941      -271.8401
  23   1.0000      -9.989212      -271.8203
  24   1.0000      -7.732116      -210.4016
  25   1.0000      -7.732098      -210.4011
  26   1.0000      -7.728378      -210.2999
  27   1.0000      -7.728344      -210.2989
  28   1.0000      -7.669297      -208.6922
  29   1.0000      -7.669227      -208.6903
  30   1.0000      -7.664283      -208.5558
  31   1.0000      -7.664251      -208.5549
  32   1.0000      -5.697373      -155.0334
  33   1.0000      -5.697365      -155.0332
  34   1.0000      -5.693629      -154.9315
  35   1.0000      -5.693593      -154.9305
  36   1.0000      -5.693422      -154.9259
  37   1.0000      -5.693397      -154.9252
  38   1.0000      -5.689803      -154.8274
  39   1.0000      -5.689780      -154.8268
  40   1.0000      -5.686885      -154.7480
  41   1.0000      -5.686858      -154.7473
  42   1.0000      -5.683102      -154.6451
  43   1.0000      -5.683068      -154.6441
  44   1.0000      -5.634127      -153.3124
  45   1.0000      -5.634063      -153.3106
  46   1.0000      -5.629181      -153.1778
  47   1.0000      -5.629156      -153.1771
  48   1.0000      -5.627996      -153.1456
  49   1.0000      -5.627953      -153.1444
  50   1.0000      -5.627153      -153.1226
  51   1.0000      -5.627077      -153.1206
  52   1.0000      -5.623039      -153.0107
  53   1.0000      -5.623003      -153.0097
  54   1.0000      -5.622256      -152.9894
  55   1.0000      -5.622234      -152.9888
  56   1.0000      -2.365984       -64.3817
  57   1.0000      -1.430540       -38.9270
  58   1.0000      -1.378929       -37.5226
  59   1.0000      -1.378502       -37.5110
  60   1.0000      -0.645243       -17.5580
  61   1.0000      -0.641439       -17.4544
  62   1.0000      -0.623505       -16.9664
  63   1.0000      -0.595022       -16.1914
  64   1.0000      -0.591367       -16.0919
  65   1.0000      -0.579426       -15.7670
  66   1.0000      -0.571675       -15.5561
  67   1.0000      -0.492332       -13.3970
  68   1.0000      -0.491554       -13.3759
  69   1.0000      -0.489317       -13.3150
  70   1.0000      -0.481379       -13.0990
  71   1.0000      -0.424190       -11.5428
  72   1.0000      -0.419473       -11.4144
  73   1.0000      -0.412957       -11.2371
  74   1.0000      -0.407108       -11.0780
  75   1.0000      -0.379167       -10.3177
  76   1.0000      -0.370570       -10.0837
  77   1.0000      -0.294068        -8.0020
  78   1.0000      -0.291184        -7.9235
  79   1.0000      -0.279331        -7.6010
  80   1.0000      -0.275009        -7.4834
  81   1.0000      -0.261422        -7.1137
  82   1.0000      -0.254755        -6.9322
  83   1.0000      -0.243166        -6.6169
  84   1.0000      -0.237432        -6.4608
  85   1.0000      -0.195256        -5.3132
  86   1.0000      -0.194221        -5.2850
  87   1.0000      -0.191485        -5.2106
  88   1.0000      -0.189704        -5.1621
  89   1.0000      -0.186520        -5.0755
  90   1.0000      -0.182495        -4.9660
  91   1.0000      -0.178704        -4.8628
  92   1.0000      -0.150288        -4.0895
  93   1.0000      -0.149668        -4.0727
  94   1.0000      -0.145010        -3.9459
  95   1.0000      -0.143186        -3.8963
  96   1.0000      -0.140115        -3.8127
  97   1.0000      -0.096015        -2.6127
  98   1.0000      -0.093007        -2.5308
  99   1.0000      -0.090168        -2.4536
 100   1.0000      -0.083379        -2.2689
 101   1.0000      -0.081041        -2.2052
 102   1.0000      -0.075927        -2.0661
 103   1.0000      -0.068105        -1.8532
 104   1.0000      -0.047528        -1.2933
 105   1.0000      -0.042530        -1.1573
 106   1.0000      -0.039469        -1.0740
 107   1.0000      -0.031935        -0.8690
 108   1.0000      -0.026644        -0.7250
 109   1.0000      -0.012003        -0.3266
 110   1.0000      -0.008142        -0.2216
 111   1.0000      -0.001014        -0.0276
 112   1.0000       0.004500         0.1224
 113   1.0000       0.017072         0.4646
 114   1.0000       0.034092         0.9277
 115   1.0000       0.058752         1.5987
 116   0.0000       0.184852         5.0301
 117   0.0000       0.189205         5.1485
 118   0.0000       0.196122         5.3368
 119   0.0000       0.196144         5.3373
 120   0.0000       0.196726         5.3532

MULLIKEN ATOMIC CHARGES AND SPIN POPULATIONS
--------------------------------------------
   0 V :    0.433099    1.213184
   1 S :   -0.275130   -0.024923
   2 S :   -0.226682   -0.026175
   3 S :   -0.275946   -0.024808
   4 S :   -0.227687   -0.026094
   5 O :   -0.506774   -0.148171
   6 C :   -0.111462    0.011036
   7 C :   -0.109642    0.011038
   8 C :   -0.120232    0.007088
   9 C :   -0.119482    0.007043
  10 S :   -0.041196    0.000313
  11 S :   -0.040997    0.000287
  12 S :   -0.048968   -0.000494
  13 S :   -0.048763   -0.000527
  14 C :   -0.341754    0.000439
  15 C :   -0.335221    0.000116
  16 C :   -0.339385    0.000419
  17 C :   -0.334462    0.000126
  18 C :   -0.079611    0.000028
  19 H :    0.144144   -0.000069
  20 H :    0.102466    0.000067
  21 H :    0.041903    0.000017
  22 H :    0.081787   -0.000004
  23 H :    0.102454    0.000069
  24 H :    0.145712   -0.000072
  25 C :   -0.089819    0.000218
  26 H :    0.100982    0.000001
  27 H :    0.148427   -0.000118
  28 H :    0.074972    0.000039
  29 H :    0.046836    0.000043
  30 H :    0.149260   -0.000117
  31 H :    0.101171   -0.000000
Sum of atomic charges         :   -2.0000000

LOEWDIN ATOMIC CHARGES AND SPIN POPULATIONS
-------------------------------------------
   0 V :   -0.236630    1.165382
   1 S :    0.056535   -0.017614
   2 S :    0.122627   -0.017090
   3 S :    0.055697   -0.017539
   4 S :    0.121586   -0.017075
   5 O :   -0.366081   -0.133039
   6 C :   -0.549551    0.012555
   7 C :   -0.549167    0.012509
   8 C :   -0.553983    0.007599
   9 C :   -0.554418    0.007643
  10 S :    0.342671   -0.000806
  11 S :    0.342596   -0.000818
  12 S :    0.329295   -0.001157
  13 S :    0.329409   -0.001179
  14 C :   -0.294705    0.000242
  15 C :   -0.292823    0.000108
  16 C :   -0.294816    0.000232
  17 C :   -0.293170    0.000112
  18 C :   -0.186275   -0.000081
  19 H :    0.064935   -0.000007
  20 H :    0.047595    0.000046
  21 H :    0.046260    0.000011
  22 H :    0.054796    0.000002
  23 H :    0.047573    0.000048
  24 H :    0.065346   -0.000007
  25 C :   -0.183896   -0.000003
  26 H :    0.046898   -0.000014
  27 H :    0.066808   -0.000040
  28 H :    0.052889    0.000019
  29 H :    0.048019    0.000015
  30 H :    0.067167   -0.000039
  31 H :    0.046812   -0.000015

  Mayer bond orders larger than 0.100000
B(  0-V ,  1-S ) :   0.7414 B(  0-V ,  2-S ) :   0.8465 B(  0-V ,  3-S ) :   0.7426
B(  0-V ,  4-S ) :   0.8433 B(  0-V ,  5-O ) :   2.1048 B(  1-S ,  8-C ) :   1.1418
B(  2-S ,  6-C ) :   1.1321 B(  3-S ,  9-C ) :   1.1403 B(  4-S ,  7-C ) :   1.1330
B(  6-C ,  7-C ) :   1.5088 B(  6-C , 10-S ) :   0.9595 B(  7-C , 11-S ) :   0.9592
B(  8-C ,  9-C ) :   1.5287 B(  8-C , 13-S ) :   0.9480 B(  9-C , 12-S ) :   0.9476
B( 10-S , 16-C ) :   1.0087 B( 11-S , 14-C ) :   1.0081 B( 12-S , 15-C ) :   1.0017
B( 13-S , 17-C ) :   1.0032 B( 14-C , 18-C ) :   0.8746 B( 14-C , 23-H ) :   0.9710
B( 14-C , 24-H ) :   0.9744 B( 15-C , 25-C ) :   0.8814 B( 15-C , 30-H ) :   0.9757
B( 15-C , 31-H ) :   0.9690 B( 16-C , 18-C ) :   0.8752 B( 16-C , 19-H ) :   0.9742
B( 16-C , 20-H ) :   0.9712 B( 17-C , 25-C ) :   0.8810 B( 17-C , 26-H ) :   0.9692
B( 17-C , 27-H ) :   0.9755 B( 18-C , 21-H ) :   0.9509 B( 18-C , 22-H ) :   0.9722
B( 25-C , 28-H ) :   0.9751 B( 25-C , 29-H ) :   0.9538

FINAL SINGLE POINT ENERGY     -4592.716195650188

DIPOLE MOMENT
-------------
                                X             Y             Z
Electronic contribution:     17.28559     -16.65371      11.60770
Nuclear contribution   :    -19.38925      18.36467     -13.09565
                        -----------------------------------------
Total Dipole Moment    :     -2.10366       1.71095      -1.48795
                        -----------------------------------------
Magnitude (a.u.)       :      3.09302
Magnitude (Debye)      :      7.86182

Rotational constants in cm-1:     0.012764     0.002548     0.002430
Rotational constants in MHz :   382.642849    76.377840    72.857661

                             ****ORCA TERMINATED NORMALLY****
TOTAL RUN TIME: 0 days 0 hours 27 minutes 40 seconds 241 msec
