                         Program Version 5.0.4 -  RELEASE  -
|  1> ! nofrozencore ReducedPop printbasis
|  2> ! B3LYP TZVP
|  3>
|  4> %basis
|  5> newgto V "CP(PPP)" end
|  6> end
|  7>
|  8> %pal
|  9> nprocs 8
| 10> end
| 11>
| 12> % sym SymThresh 1e-2 end
| 13> * xyz -2 2
| 14> V -0.9247840296342122 -0.5720557740758955 -0.29106505695279977
| 15> S -1.310483695995561 2.024316214312918 -0.30486716782991086
| 16> S 0.15587261558440846 -0.25115971073532917 -2.27970549700509
| 17> S -0.7710327688443301 -0.16643745779213823 2.2876918967616544
| 18> S 0.6095515809511637 -2.2223825107893145 0.046385070677106115
| 19> O -2.448554761105776 -1.0886474443856378 -0.42639230066671696
| 20> C 1.1819154028727563 -1.6385136860470952 -2.5049735902411205
| 21> C 1.381809825735515 -2.498828475520731 -1.4908057592475032
| 22> C -1.7471799286170764 2.338252289327422 1.4155072818596512
| 23> C -1.5307830546922676 1.464143727826611 2.4527680234581917
| 24> S 1.769690496672925 -1.9608696432225543 -4.134409793739342
| 25> S 2.255280385488974 -4.013503882747934 -1.7145720115982162
| 26> S -1.7574310308221983 1.9297653154772936 4.230011648332076
| 27> S -2.291967623789074 4.093242994214579 1.6575855313470045
| 28> C 3.9575168212624896 -3.3633584815952022 -1.9354543775173447
| 29> C -0.5028763685460834 3.2587158578372324 4.567080659943182
| 30> C 3.5703023460849326 -1.73007376333607 -3.867307504304202
| 31> C -0.9145719325764825 4.917226124060427 2.5939849276798026
| 32> C 4.271224367135778 -2.9938792457700703 -3.3810316737247237
| 33> H 3.6868341485790985 -0.9086212947150386 -3.1558964693962004
| 34> H 3.9897181270297426 -1.4103142220941653 -4.8270621817229795
| 35> H 5.3638523948779975 -2.8582493859070333 -3.4860450926609703
| 36> H 3.985949694087939 -3.832593724730011 -4.03286094882013
| 37> H 4.639257647973202 -4.146758645855592 -1.5879968609392916
| 38> H 4.062057893648564 -2.5028400489044693 -1.2698921409227089
| 39> C -0.798134857367662 4.690858538664962 4.1062672351264125
| 40> H -1.093327024915684 5.982926181884067 2.410367875019944
| 41> H 0.019021060773914248 4.648655606198031 2.091182829629117
| 42> H -1.7099434992814104 5.054393900841815 4.602705747488568
| 43> H 0.03498702361858215 5.325280738667225 4.464667596722533
| 44> H 0.4511383763955986 2.9109519923582017 4.159976776746351
| 45> H -0.4188650565329753 3.2496912064939116 5.660058438379216
| 46> *
| 47>
| 48> % eprnmr
| 49> gtensor true
| 50> Nuclei = all H {aiso,adip,aorb,fgrad,rho}
| 51> Nuclei = all V {aiso,adip,aorb,fgrad,rho}
| 52> end
| 53>
| 54>                          ****END OF INPUT****

CARTESIAN COORDINATES (ANGSTROEM)
---------------------------------
  V     -0.925800   -0.572607   -0.291332
  S     -1.311500    2.023765   -0.305134
  S      0.154856   -0.251711   -2.279973
  S     -0.772049   -0.166989    2.287425
  S      0.608535   -2.222934    0.046118
  O     -2.449571   -1.089199   -0.426660
  C      1.180899   -1.639065   -2.505241
  C      1.380794   -2.499380   -1.491073
  C     -1.748196    2.337701    1.415240
  C     -1.531799    1.463592    2.452501
  S      1.768674   -1.961421   -4.134677
  S      2.254264   -4.014055   -1.714839
  S     -1.758447    1.929214    4.229744
  S     -2.292984    4.092691    1.657318
  C      3.956501   -3.363910   -1.935722
  C     -0.503893    3.258164    4.566813
  C      3.569286   -1.730625   -3.867575
  C     -0.915588    4.916675    2.593718
  C      4.270208   -2.994431   -3.381299
  H      3.685818   -0.909173   -3.156164
  H      3.988702   -1.410866   -4.827329
  H      5.362836   -2.858801   -3.486312
  H      3.984934   -3.833145   -4.033128
  H      4.638241   -4.147310   -1.588264
  H      4.061042   -2.503392   -1.270159
  C     -0.799151    4.690307    4.106000
  H     -1.094343    5.982375    2.410101
  H      0.018005    4.648104    2.090916
  H     -1.710960    5.053842    4.602438
  H      0.033971    5.324729    4.464400
  H      0.450122    2.910400    4.159709
  H     -0.419881    3.249140    5.659791

 Total Charge           Charge          ....   -2
 Multiplicity           Mult            ....    2
 Number of Electrons    NEL             ....  233
 Basis Dimension        Dim             ....  517

ORBITAL ENERGIES
----------------
                 SPIN UP ORBITALS
  NO   OCC          E(Eh)            E(eV)
   0   1.0000    -196.638433     -5350.8038
   1   1.0000     -88.681652     -2413.1504
   2   1.0000     -88.681549     -2413.1476
   3   1.0000     -88.671955     -2412.8866
   4   1.0000     -88.671767     -2412.8815
   5   1.0000     -88.618502     -2411.4320
   6   1.0000     -88.618463     -2411.4310
   7   1.0000     -88.606432     -2411.1036
   8   1.0000     -88.606026     -2411.0925
   9   1.0000     -22.014372      -599.0415
  10   1.0000     -18.853102      -513.0190
  11   1.0000     -18.520993      -503.9818
  12   1.0000     -18.515529      -503.8332
  13   1.0000     -18.515447      -503.8309
  14   1.0000     -10.019423      -272.6424
  15   1.0000     -10.019359      -272.6406
  16   1.0000     -10.012376      -272.4506
  17   1.0000     -10.012367      -272.4504
  18   1.0000     -10.008370      -272.3416
  19   1.0000     -10.003442      -272.2075
  20   1.0000      -9.992910      -271.9209
  21   1.0000      -9.992310      -271.9046
  22   1.0000      -9.992233      -271.9025
  23   1.0000      -9.991506      -271.8827
  24   1.0000      -7.736475      -210.5202
  25   1.0000      -7.736389      -210.5179
  26   1.0000      -7.724533      -210.1952
  27   1.0000      -7.724348      -210.1902
  28   1.0000      -7.675119      -208.8506
  29   1.0000      -7.674996      -208.8472
  30   1.0000      -7.659141      -208.4158
  31   1.0000      -7.658791      -208.4063
  32   1.0000      -5.701542      -155.1468
  33   1.0000      -5.701451      -155.1444
  34   1.0000      -5.697860      -155.0466
  35   1.0000      -5.697779      -155.0445
  36   1.0000      -5.691150      -154.8641
  37   1.0000      -5.691063      -154.8617
  38   1.0000      -5.689927      -154.8308
  39   1.0000      -5.689742      -154.8258
  40   1.0000      -5.685899      -154.7212
  41   1.0000      -5.685707      -154.7160
  42   1.0000      -5.679303      -154.5417
  43   1.0000      -5.679131      -154.5370
  44   1.0000      -5.639608      -153.4615
  45   1.0000      -5.639501      -153.4586
  46   1.0000      -5.633458      -153.2942
  47   1.0000      -5.633370      -153.2918
  48   1.0000      -5.633041      -153.2828
  49   1.0000      -5.632928      -153.2798
  50   1.0000      -5.624330      -153.0458
  51   1.0000      -5.623954      -153.0356
  52   1.0000      -5.617887      -152.8705
  53   1.0000      -5.617539      -152.8610
  54   1.0000      -5.616819      -152.8414
  55   1.0000      -5.616491      -152.8325
  56   1.0000      -2.408821       -65.5474
  57   1.0000      -1.448287       -39.4099
  58   1.0000      -1.439765       -39.1780
  59   1.0000      -1.438307       -39.1383
  60   1.0000      -0.659543       -17.9471
  61   1.0000      -0.630862       -17.1666
  62   1.0000      -0.613762       -16.7013
  63   1.0000      -0.608774       -16.5656
  64   1.0000      -0.587908       -15.9978
  65   1.0000      -0.576483       -15.6869
  66   1.0000      -0.564750       -15.3676
  67   1.0000      -0.504381       -13.7249
  68   1.0000      -0.498177       -13.5561
  69   1.0000      -0.478401       -13.0179
  70   1.0000      -0.474485       -12.9114
  71   1.0000      -0.431965       -11.7544
  72   1.0000      -0.420672       -11.4471
  73   1.0000      -0.410974       -11.1832
  74   1.0000      -0.398307       -10.8385
  75   1.0000      -0.384837       -10.4719
  76   1.0000      -0.366208        -9.9650
  77   1.0000      -0.298131        -8.1125
  78   1.0000      -0.287797        -7.8313
  79   1.0000      -0.287590        -7.8257
  80   1.0000      -0.269230        -7.3261
  81   1.0000      -0.267420        -7.2769
  82   1.0000      -0.249164        -6.7801
  83   1.0000      -0.244813        -6.6617
  84   1.0000      -0.235411        -6.4059
  85   1.0000      -0.202354        -5.5063
  86   1.0000      -0.199750        -5.4355
  87   1.0000      -0.193723        -5.2715
  88   1.0000      -0.191413        -5.2086
  89   1.0000      -0.184867        -5.0305
  90   1.0000      -0.182594        -4.9686
  91   1.0000      -0.176239        -4.7957
  92   1.0000      -0.156715        -4.2644
  93   1.0000      -0.155459        -4.2302
  94   1.0000      -0.144017        -3.9189
  95   1.0000      -0.137530        -3.7424
  96   1.0000      -0.129726        -3.5300
  97   1.0000      -0.105901        -2.8817
  98   1.0000      -0.101219        -2.7543
  99   1.0000      -0.087081        -2.3696
 100   1.0000      -0.080247        -2.1836
 101   1.0000      -0.075410        -2.0520
 102   1.0000      -0.073023        -1.9871
 103   1.0000      -0.066654        -1.8137
 104   1.0000      -0.048284        -1.3139
 105   1.0000      -0.045210        -1.2302
 106   1.0000      -0.042197        -1.1482
 107   1.0000      -0.032517        -0.8848
 108   1.0000      -0.028310        -0.7703
 109   1.0000      -0.012710        -0.3459
 110   1.0000      -0.005531        -0.1505
 111   1.0000      -0.002692        -0.0733
 112   1.0000       0.009686         0.2636
 113   1.0000       0.015397         0.4190
 114   1.0000       0.018468         0.5025
 115   1.0000       0.028877         0.7858
 116   1.0000       0.062350         1.6966
 117   0.0000       0.179119         4.8741
 118   0.0000       0.193836         5.2746
 119   0.0000       0.197856         5.3839
 120   0.0000       0.198616         5.4046
 121   0.0000       0.206334         5.6146

                 SPIN DOWN ORBITALS
  NO   OCC          E(Eh)            E(eV)
   0   1.0000    -196.638567     -5350.8074
   1   1.0000     -88.681662     -2413.1507
   2   1.0000     -88.681559     -2413.1479
   3   1.0000     -88.671971     -2412.8870
   4   1.0000     -88.671784     -2412.8819
   5   1.0000     -88.618656     -2411.4362
   6   1.0000     -88.618618     -2411.4352
   7   1.0000     -88.606594     -2411.1080
   8   1.0000     -88.606188     -2411.0970
   9   1.0000     -21.999794      -598.6448
  10   1.0000     -18.856791      -513.1194
  11   1.0000     -18.515781      -503.8400
  12   1.0000     -18.500309      -503.4190
  13   1.0000     -18.499349      -503.3929
  14   1.0000     -10.019419      -272.6422
  15   1.0000     -10.019355      -272.6405
  16   1.0000     -10.012372      -272.4505
  17   1.0000     -10.012363      -272.4503
  18   1.0000     -10.008366      -272.3415
  19   1.0000     -10.003444      -272.2075
  20   1.0000      -9.992764      -271.9169
  21   1.0000      -9.992086      -271.8985
  22   1.0000      -9.991890      -271.8931
  23   1.0000      -9.991091      -271.8714
  24   1.0000      -7.736485      -210.5204
  25   1.0000      -7.736399      -210.5181
  26   1.0000      -7.724551      -210.1957
  27   1.0000      -7.724365      -210.1906
  28   1.0000      -7.675256      -208.8543
  29   1.0000      -7.675134      -208.8510
  30   1.0000      -7.659294      -208.4200
  31   1.0000      -7.658945      -208.4105
  32   1.0000      -5.701555      -155.1472
  33   1.0000      -5.701465      -155.1447
  34   1.0000      -5.697878      -155.0472
  35   1.0000      -5.697798      -155.0450
  36   1.0000      -5.691156      -154.8642
  37   1.0000      -5.691069      -154.8619
  38   1.0000      -5.689946      -154.8313
  39   1.0000      -5.689761      -154.8263
  40   1.0000      -5.685921      -154.7218
  41   1.0000      -5.685728      -154.7165
  42   1.0000      -5.679330      -154.5424
  43   1.0000      -5.679157      -154.5377
  44   1.0000      -5.639816      -153.4672
  45   1.0000      -5.639707      -153.4642
  46   1.0000      -5.633646      -153.2993
  47   1.0000      -5.633560      -153.2970
  48   1.0000      -5.633321      -153.2905
  49   1.0000      -5.633214      -153.2875
  50   1.0000      -5.624475      -153.0497
  51   1.0000      -5.624098      -153.0395
  52   1.0000      -5.618356      -152.8832
  53   1.0000      -5.618010      -152.8738
  54   1.0000      -5.616906      -152.8438
  55   1.0000      -5.616579      -152.8349
  56   1.0000      -2.364805       -64.3496
  57   1.0000      -1.429170       -38.8897
  58   1.0000      -1.378708       -37.5165
  59   1.0000      -1.377906       -37.4947
  60   1.0000      -0.659366       -17.9423
  61   1.0000      -0.630862       -17.1666
  62   1.0000      -0.621572       -16.9138
  63   1.0000      -0.608717       -16.5640
  64   1.0000      -0.587832       -15.9957
  65   1.0000      -0.576417       -15.6851
  66   1.0000      -0.564780       -15.3685
  67   1.0000      -0.504250       -13.7213
  68   1.0000      -0.497912       -13.5489
  69   1.0000      -0.478511       -13.0209
  70   1.0000      -0.474659       -12.9161
  71   1.0000      -0.432038       -11.7564
  72   1.0000      -0.420486       -11.4420
  73   1.0000      -0.411398       -11.1947
  74   1.0000      -0.398550       -10.8451
  75   1.0000      -0.384672       -10.4675
  76   1.0000      -0.366317        -9.9680
  77   1.0000      -0.298078        -8.1111
  78   1.0000      -0.287798        -7.8314
  79   1.0000      -0.287522        -7.8239
  80   1.0000      -0.268870        -7.3163
  81   1.0000      -0.267421        -7.2769
  82   1.0000      -0.249132        -6.7792
  83   1.0000      -0.244635        -6.6569
  84   1.0000      -0.235405        -6.4057
  85   1.0000      -0.201815        -5.4917
  86   1.0000      -0.199708        -5.4343
  87   1.0000      -0.193571        -5.2673
  88   1.0000      -0.189306        -5.1513
  89   1.0000      -0.184850        -5.0300
  90   1.0000      -0.181982        -4.9520
  91   1.0000      -0.176178        -4.7940
  92   1.0000      -0.156209        -4.2507
  93   1.0000      -0.155117        -4.2209
  94   1.0000      -0.143571        -3.9068
  95   1.0000      -0.137444        -3.7400
  96   1.0000      -0.129663        -3.5283
  97   1.0000      -0.105080        -2.8594
  98   1.0000      -0.099931        -2.7193
  99   1.0000      -0.086584        -2.3561
 100   1.0000      -0.080123        -2.1803
 101   1.0000      -0.077015        -2.0957
 102   1.0000      -0.072801        -1.9810
 103   1.0000      -0.066632        -1.8132
 104   1.0000      -0.047236        -1.2854
 105   1.0000      -0.043795        -1.1917
 106   1.0000      -0.041033        -1.1166
 107   1.0000      -0.032352        -0.8803
 108   1.0000      -0.028350        -0.7714
 109   1.0000      -0.013320        -0.3624
 110   1.0000      -0.004184        -0.1139
 111   1.0000      -0.001865        -0.0507
 112   1.0000       0.009409         0.2560
 113   1.0000       0.019337         0.5262
 114   1.0000       0.028567         0.7773
 115   1.0000       0.060904         1.6573
 116   0.0000       0.181926         4.9505
 117   0.0000       0.182644         4.9700
 118   0.0000       0.193913         5.2766
 119   0.0000       0.198524         5.4021
 120   0.0000       0.198774         5.4089

MULLIKEN ATOMIC CHARGES AND SPIN POPULATIONS
--------------------------------------------
   0 V :    0.443488    1.198066
   1 S :   -0.311270   -0.027634
   2 S :   -0.197080   -0.019680
   3 S :   -0.310576   -0.027503
   4 S :   -0.196338   -0.019252
   5 O :   -0.513918   -0.142949
   6 C :   -0.125349    0.012348
   7 C :   -0.120927    0.012928
   8 C :   -0.107229    0.006186
   9 C :   -0.106768    0.006307
  10 S :   -0.027217    0.001043
  11 S :   -0.028104    0.001073
  12 S :   -0.061070   -0.001062
  13 S :   -0.060156   -0.001124
  14 C :   -0.346868    0.000412
  15 C :   -0.325402    0.000263
  16 C :   -0.346945    0.000386
  17 C :   -0.326219    0.000268
  18 C :   -0.108025   -0.000109
  19 H :    0.154609   -0.000074
  20 H :    0.110902   -0.000056
  21 H :    0.045412    0.000239
  22 H :    0.089659    0.000219
  23 H :    0.110944   -0.000056
  24 H :    0.155109   -0.000073
  25 C :   -0.068833    0.000064
  26 H :    0.094000    0.000044
  27 H :    0.138874   -0.000115
  28 H :    0.069153   -0.000062
  29 H :    0.043158   -0.000030
  30 H :    0.138930   -0.000111
  31 H :    0.094057    0.000044
Sum of atomic charges         :   -2.0000000

LOEWDIN ATOMIC CHARGES AND SPIN POPULATIONS
-------------------------------------------
   0 V :   -0.258208    1.149241
   1 S :    0.010680   -0.020443
   2 S :    0.172673   -0.010779
   3 S :    0.011478   -0.020215
   4 S :    0.174873   -0.010238
   5 O :   -0.365482   -0.128522
   6 C :   -0.575586    0.015739
   7 C :   -0.574878    0.016326
   8 C :   -0.524110    0.005834
   9 C :   -0.525196    0.006006
  10 S :    0.361321   -0.000184
  11 S :    0.360849   -0.000163
  12 S :    0.311437   -0.001616
  13 S :    0.310816   -0.001656
  14 C :   -0.290492    0.000224
  15 C :   -0.296752    0.000125
  16 C :   -0.290768    0.000210
  17 C :   -0.296818    0.000126
  18 C :   -0.190355    0.000073
  19 H :    0.068853   -0.000000
  20 H :    0.046988   -0.000041
  21 H :    0.045163    0.000074
  22 H :    0.055292    0.000091
  23 H :    0.046979   -0.000039
  24 H :    0.069024    0.000002
  25 C :   -0.180791   -0.000102
  26 H :    0.047800    0.000028
  27 H :    0.062996   -0.000054
  28 H :    0.052468   -0.000019
  29 H :    0.048844   -0.000004
  30 H :    0.063046   -0.000052
  31 H :    0.047858    0.000027

  Mayer bond orders larger than 0.100000
B(  0-V ,  1-S ) :   0.6765 B(  0-V ,  2-S ) :   0.9057 B(  0-V ,  3-S ) :   0.6845
B(  0-V ,  4-S ) :   0.9110 B(  0-V ,  5-O ) :   2.0877 B(  1-S ,  8-C ) :   1.1187
B(  2-S ,  6-C ) :   1.1475 B(  3-S ,  9-C ) :   1.1126 B(  4-S ,  7-C ) :   1.1424
B(  6-C ,  7-C ) :   1.4542 B(  6-C , 10-S ) :   0.9479 B(  7-C , 11-S ) :   0.9475
B(  8-C ,  9-C ) :   1.5888 B(  8-C , 13-S ) :   0.9411 B(  9-C , 12-S ) :   0.9418
B( 10-S , 16-C ) :   0.9872 B( 11-S , 14-C ) :   0.9857 B( 12-S , 15-C ) :   1.0219
B( 13-S , 17-C ) :   1.0240 B( 14-C , 18-C ) :   0.8720 B( 14-C , 23-H ) :   0.9666
B( 14-C , 24-H ) :   0.9793 B( 15-C , 25-C ) :   0.8838 B( 15-C , 30-H ) :   0.9727
B( 15-C , 31-H ) :   0.9711 B( 16-C , 18-C ) :   0.8714 B( 16-C , 19-H ) :   0.9793
B( 16-C , 20-H ) :   0.9667 B( 17-C , 25-C ) :   0.8830 B( 17-C , 26-H ) :   0.9711
B( 17-C , 27-H ) :   0.9728 B( 18-C , 21-H ) :   0.9471 B( 18-C , 22-H ) :   0.9765
B( 25-C , 28-H ) :   0.9715 B( 25-C , 29-H ) :   0.9562

FINAL SINGLE POINT ENERGY     -4592.696162349199

DIPOLE MOMENT
-------------
                                X             Y             Z
Electronic contribution:    -22.59134     -12.84721      -6.22201
Nuclear contribution   :     25.85993      13.44248       6.06215
                        -----------------------------------------
Total Dipole Moment    :      3.26859       0.59527      -0.15986
                        -----------------------------------------
Magnitude (a.u.)       :      3.32620
Magnitude (Debye)      :      8.45452

Rotational constants in cm-1:     0.012759     0.002548     0.002430
Rotational constants in MHz :   382.503520    76.382555    72.861938

                             ****ORCA TERMINATED NORMALLY****
TOTAL RUN TIME: 0 days 0 hours 27 minutes 33 seconds 848 msec
