                         Program Version 5.0.4 -  RELEASE  -
|  1> ! nofrozencore ReducedPop printbasis
|  2> ! B3LYP TZVP
|  3>
|  4> %basis
|  5> newgto V "CP(PPP)" end
|  6> end
|  7>
|  8> %pal
|  9> nprocs 8
| 10> end
| 11>
| 12> % sym SymThresh 1e-2 end
| 13> * xyz -2 2
| 14> V 0.7832352210143864 0.5997980326189588 -0.5211386585180301
| 15> S 0.011804364944874827 -1.1291583484023917 -2.0775465647920943
| 16> S -1.3811777212767926 1.6753305933883569 -0.918635877361462
| 17> S 1.8875991513962767 -1.2871967820809211 0.5834083849496664
| 18> S 0.515757284710744 1.535731834249376 1.7287055204984587
| 19> O 1.9034286096104598 1.4538779357992937 -1.2707043342730746
| 20> C -1.559669283369538 2.790568025612477 0.4382482560282838
| 21> C -0.7695381831731268 2.7312896301768963 1.5426750900331405
| 22> C 1.068106953426201 -2.5007642305935 -1.7402438256683177
| 23> C 1.8507139473486929 -2.566960668506221 -0.6303868082353207
| 24> S -2.901334327917838 3.984405691112551 0.2685443114673389
| 25> S -0.9880555983571326 3.8372783379262962 2.950972045762334
| 26> S 2.872170676311979 -4.003414769594683 -0.25463747137793474
| 27> S 0.9802300709969317 -3.8435673686948877 -2.9395408568685024
| 28> C -2.57476138787766 3.338403140055383 3.685727249217401
| 29> C 1.7465544562745883 -5.326420324020874 0.1749467326638121
| 30> C -4.141638642175552 3.4609827992688693 1.4905653278945101
| 31> C 0.1228701858885519 -5.189814039585268 -2.131408663620694
| 32> C -3.8534621678618137 3.955390589473485 2.972583535666295
| 33> H -4.10605752660115 2.3651856339677058 1.4751737666216926
| 34> H -5.133960048153964 3.7645784165706084 1.1281599259146216
| 35> H -4.7254689684283715 3.6594246950572282 3.578443718869533
| 36> H -3.80338844622387 5.0498119880657315 2.997997691617591
| 37> H -2.5425657893495615 3.559490653535235 4.761942901346524
| 38> H -2.605122841057099 2.2480661954293035 3.573989278539124
| 39> C 1.1170708223776846 -6.079845648830427 -1.1553887527054119
| 40> H -0.5095818789765223 -5.771637905164833 -2.8405307025822237
| 41> H -0.5644041266891361 -4.647817826778142 -1.4485998665430662
| 42> H 1.9136021824743346 -6.5539569506359605 -1.7439034896745411
| 43> H 0.4832650060265785 -6.891641889955161 -0.757515555519095
| 44> H 0.9028871767800554 -4.7702962818914045 0.6343569721664517
| 45> H 2.164776637113227 -5.996973724565297 0.9601890168353177
| 46> *
| 47>
| 48> % eprnmr
| 49> gtensor true
| 50> Nuclei = all H {aiso,adip,aorb,fgrad,rho}
| 51> Nuclei = all V {aiso,adip,aorb,fgrad,rho}
| 52> end
| 53>
| 54>                          ****END OF INPUT****

CARTESIAN COORDINATES (ANGSTROEM)
---------------------------------
  V      0.784029    0.600503   -0.521669
  S      0.012598   -1.128453   -2.078077
  S     -1.380384    1.676036   -0.919166
  S      1.888393   -1.286491    0.582878
  S      0.516551    1.536437    1.728175
  O      1.904222    1.454583   -1.271234
  C     -1.558876    2.791273    0.437718
  C     -0.768745    2.731995    1.542145
  C      1.068901   -2.500059   -1.740774
  C      1.851508   -2.566255   -0.630917
  S     -2.900541    3.985111    0.268014
  S     -0.987262    3.837984    2.950442
  S      2.872964   -4.002709   -0.255168
  S      0.981024   -3.842862   -2.940071
  C     -2.573968    3.339109    3.685197
  C      1.747348   -5.325715    0.174417
  C     -4.140845    3.461688    1.490035
  C      0.123664   -5.189109   -2.131939
  C     -3.852668    3.956096    2.972054
  H     -4.105264    2.365891    1.474644
  H     -5.133166    3.765284    1.127630
  H     -4.724675    3.660130    3.577914
  H     -3.802595    5.050517    2.997468
  H     -2.541772    3.560196    4.761413
  H     -2.604329    2.248772    3.573459
  C      1.117864   -6.079140   -1.155919
  H     -0.508788   -5.770933   -2.841061
  H     -0.563610   -4.647112   -1.449130
  H      1.914396   -6.553252   -1.744434
  H      0.484059   -6.890936   -0.758046
  H      0.903681   -4.769591    0.633827
  H      2.165570   -5.996268    0.959659

 Total Charge           Charge          ....   -2
 Multiplicity           Mult            ....    2
 Number of Electrons    NEL             ....  233
 Basis Dimension        Dim             ....  517

ORBITAL ENERGIES
----------------
                 SPIN UP ORBITALS
  NO   OCC          E(Eh)            E(eV)
   0   1.0000    -196.641777     -5350.8948
   1   1.0000     -88.675409     -2412.9806
   2   1.0000     -88.675326     -2412.9783
   3   1.0000     -88.673306     -2412.9233
   4   1.0000     -88.673241     -2412.9216
   5   1.0000     -88.614398     -2411.3204
   6   1.0000     -88.614387     -2411.3200
   7   1.0000     -88.613918     -2411.3073
   8   1.0000     -88.613877     -2411.3062
   9   1.0000     -22.017550      -599.1280
  10   1.0000     -18.859136      -513.1832
  11   1.0000     -18.524394      -504.0744
  12   1.0000     -18.518594      -503.9166
  13   1.0000     -18.518554      -503.9155
  14   1.0000     -10.026209      -272.8270
  15   1.0000     -10.026190      -272.8265
  16   1.0000     -10.020552      -272.6731
  17   1.0000     -10.020542      -272.6728
  18   1.0000     -10.016183      -272.5542
  19   1.0000     -10.010958      -272.4120
  20   1.0000      -9.994687      -271.9693
  21   1.0000      -9.993974      -271.9499
  22   1.0000      -9.993828      -271.9459
  23   1.0000      -9.993109      -271.9263
  24   1.0000      -7.729599      -210.3331
  25   1.0000      -7.729518      -210.3309
  26   1.0000      -7.728091      -210.2920
  27   1.0000      -7.728053      -210.2910
  28   1.0000      -7.668904      -208.6815
  29   1.0000      -7.668869      -208.6805
  30   1.0000      -7.668374      -208.6671
  31   1.0000      -7.668335      -208.6660
  32   1.0000      -5.694809      -154.9636
  33   1.0000      -5.694730      -154.9615
  34   1.0000      -5.693248      -154.9211
  35   1.0000      -5.693226      -154.9206
  36   1.0000      -5.690870      -154.8564
  37   1.0000      -5.690788      -154.8542
  38   1.0000      -5.689265      -154.8128
  39   1.0000      -5.689213      -154.8114
  40   1.0000      -5.684338      -154.6787
  41   1.0000      -5.684263      -154.6767
  42   1.0000      -5.682836      -154.6378
  43   1.0000      -5.682791      -154.6366
  44   1.0000      -5.633724      -153.3014
  45   1.0000      -5.633693      -153.3006
  46   1.0000      -5.633200      -153.2872
  47   1.0000      -5.633156      -153.2860
  48   1.0000      -5.627354      -153.1281
  49   1.0000      -5.627312      -153.1270
  50   1.0000      -5.626870      -153.1149
  51   1.0000      -5.626854      -153.1145
  52   1.0000      -5.626827      -153.1137
  53   1.0000      -5.626788      -153.1127
  54   1.0000      -5.626367      -153.1012
  55   1.0000      -5.626326      -153.1001
  56   1.0000      -2.411333       -65.6157
  57   1.0000      -1.452813       -39.5330
  58   1.0000      -1.441085       -39.2139
  59   1.0000      -1.440058       -39.1860
  60   1.0000      -0.639033       -17.3890
  61   1.0000      -0.636315       -17.3150
  62   1.0000      -0.620103       -16.8739
  63   1.0000      -0.588568       -16.0158
  64   1.0000      -0.583153       -15.8684
  65   1.0000      -0.581276       -15.8173
  66   1.0000      -0.579744       -15.7756
  67   1.0000      -0.491883       -13.3848
  68   1.0000      -0.489668       -13.3245
  69   1.0000      -0.486749       -13.2451
  70   1.0000      -0.484485       -13.1835
  71   1.0000      -0.420487       -11.4420
  72   1.0000      -0.417772       -11.3682
  73   1.0000      -0.415938       -11.3182
  74   1.0000      -0.412292       -11.2190
  75   1.0000      -0.376980       -10.2582
  76   1.0000      -0.373604       -10.1663
  77   1.0000      -0.288136        -7.8406
  78   1.0000      -0.281647        -7.6640
  79   1.0000      -0.271362        -7.3841
  80   1.0000      -0.265558        -7.2262
  81   1.0000      -0.262687        -7.1481
  82   1.0000      -0.256748        -6.9865
  83   1.0000      -0.236681        -6.4404
  84   1.0000      -0.233118        -6.3435
  85   1.0000      -0.199319        -5.4237
  86   1.0000      -0.198933        -5.4132
  87   1.0000      -0.198869        -5.4115
  88   1.0000      -0.196532        -5.3479
  89   1.0000      -0.186866        -5.0849
  90   1.0000      -0.184040        -5.0080
  91   1.0000      -0.179023        -4.8715
  92   1.0000      -0.151429        -4.1206
  93   1.0000      -0.150512        -4.0956
  94   1.0000      -0.141752        -3.8573
  95   1.0000      -0.141098        -3.8395
  96   1.0000      -0.137848        -3.7510
  97   1.0000      -0.099018        -2.6944
  98   1.0000      -0.094252        -2.5647
  99   1.0000      -0.091439        -2.4882
 100   1.0000      -0.084124        -2.2891
 101   1.0000      -0.082154        -2.2355
 102   1.0000      -0.080805        -2.1988
 103   1.0000      -0.070831        -1.9274
 104   1.0000      -0.052366        -1.4250
 105   1.0000      -0.038885        -1.0581
 106   1.0000      -0.038466        -1.0467
 107   1.0000      -0.033704        -0.9171
 108   1.0000      -0.031043        -0.8447
 109   1.0000      -0.013220        -0.3597
 110   1.0000      -0.006559        -0.1785
 111   1.0000      -0.003345        -0.0910
 112   1.0000       0.004684         0.1274
 113   1.0000       0.010456         0.2845
 114   1.0000       0.014625         0.3980
 115   1.0000       0.030922         0.8414
 116   1.0000       0.057125         1.5545
 117   0.0000       0.187636         5.1058
 118   0.0000       0.196077         5.3355
 119   0.0000       0.198524         5.4021
 120   0.0000       0.200845         5.4653
 121   0.0000       0.209515         5.7012

                 SPIN DOWN ORBITALS
  NO   OCC          E(Eh)            E(eV)
   0   1.0000    -196.641919     -5350.8986
   1   1.0000     -88.675422     -2412.9809
   2   1.0000     -88.675340     -2412.9787
   3   1.0000     -88.673319     -2412.9237
   4   1.0000     -88.673254     -2412.9219
   5   1.0000     -88.614557     -2411.3247
   6   1.0000     -88.614545     -2411.3244
   7   1.0000     -88.614078     -2411.3116
   8   1.0000     -88.614036     -2411.3105
   9   1.0000     -22.002886      -598.7290
  10   1.0000     -18.862716      -513.2806
  11   1.0000     -18.519268      -503.9349
  12   1.0000     -18.503094      -503.4948
  13   1.0000     -18.502437      -503.4769
  14   1.0000     -10.026205      -272.8269
  15   1.0000     -10.026186      -272.8264
  16   1.0000     -10.020548      -272.6730
  17   1.0000     -10.020539      -272.6727
  18   1.0000     -10.016181      -272.5541
  19   1.0000     -10.010957      -272.4120
  20   1.0000      -9.994433      -271.9623
  21   1.0000      -9.993722      -271.9430
  22   1.0000      -9.993575      -271.9390
  23   1.0000      -9.992857      -271.9195
  24   1.0000      -7.729614      -210.3335
  25   1.0000      -7.729532      -210.3313
  26   1.0000      -7.728105      -210.2924
  27   1.0000      -7.728067      -210.2914
  28   1.0000      -7.669052      -208.6855
  29   1.0000      -7.669017      -208.6846
  30   1.0000      -7.668523      -208.6711
  31   1.0000      -7.668483      -208.6700
  32   1.0000      -5.694826      -154.9641
  33   1.0000      -5.694747      -154.9619
  34   1.0000      -5.693265      -154.9216
  35   1.0000      -5.693243      -154.9210
  36   1.0000      -5.690890      -154.8570
  37   1.0000      -5.690808      -154.8548
  38   1.0000      -5.689285      -154.8133
  39   1.0000      -5.689233      -154.8119
  40   1.0000      -5.684356      -154.6792
  41   1.0000      -5.684280      -154.6771
  42   1.0000      -5.682854      -154.6383
  43   1.0000      -5.682808      -154.6371
  44   1.0000      -5.633895      -153.3061
  45   1.0000      -5.633864      -153.3052
  46   1.0000      -5.633372      -153.2918
  47   1.0000      -5.633327      -153.2906
  48   1.0000      -5.627735      -153.1385
  49   1.0000      -5.627695      -153.1374
  50   1.0000      -5.627215      -153.1243
  51   1.0000      -5.627176      -153.1232
  52   1.0000      -5.627013      -153.1188
  53   1.0000      -5.626994      -153.1183
  54   1.0000      -5.626506      -153.1050
  55   1.0000      -5.626463      -153.1038
  56   1.0000      -2.367162       -64.4138
  57   1.0000      -1.434003       -39.0212
  58   1.0000      -1.379700       -37.5435
  59   1.0000      -1.379071       -37.5264
  60   1.0000      -0.638963       -17.3871
  61   1.0000      -0.636229       -17.3127
  62   1.0000      -0.627752       -17.0820
  63   1.0000      -0.588395       -16.0110
  64   1.0000      -0.583151       -15.8683
  65   1.0000      -0.581120       -15.8131
  66   1.0000      -0.579741       -15.7756
  67   1.0000      -0.491911       -13.3856
  68   1.0000      -0.489705       -13.3255
  69   1.0000      -0.486769       -13.2457
  70   1.0000      -0.484526       -13.1846
  71   1.0000      -0.420728       -11.4486
  72   1.0000      -0.417794       -11.3687
  73   1.0000      -0.416199       -11.3254
  74   1.0000      -0.412391       -11.2217
  75   1.0000      -0.376933       -10.2569
  76   1.0000      -0.373629       -10.1669
  77   1.0000      -0.288120        -7.8402
  78   1.0000      -0.281632        -7.6636
  79   1.0000      -0.271335        -7.3834
  80   1.0000      -0.265522        -7.2252
  81   1.0000      -0.262455        -7.1418
  82   1.0000      -0.256693        -6.9850
  83   1.0000      -0.236606        -6.4384
  84   1.0000      -0.233077        -6.3423
  85   1.0000      -0.199079        -5.4172
  86   1.0000      -0.198933        -5.4132
  87   1.0000      -0.198865        -5.4114
  88   1.0000      -0.196408        -5.3445
  89   1.0000      -0.185718        -5.0537
  90   1.0000      -0.183841        -5.0026
  91   1.0000      -0.178059        -4.8452
  92   1.0000      -0.150720        -4.1013
  93   1.0000      -0.150098        -4.0844
  94   1.0000      -0.141462        -3.8494
  95   1.0000      -0.140813        -3.8317
  96   1.0000      -0.137659        -3.7459
  97   1.0000      -0.097546        -2.6544
  98   1.0000      -0.093799        -2.5524
  99   1.0000      -0.091547        -2.4911
 100   1.0000      -0.084290        -2.2936
 101   1.0000      -0.084005        -2.2859
 102   1.0000      -0.080501        -2.1905
 103   1.0000      -0.072275        -1.9667
 104   1.0000      -0.047859        -1.3023
 105   1.0000      -0.039002        -1.0613
 106   1.0000      -0.037446        -1.0190
 107   1.0000      -0.032737        -0.8908
 108   1.0000      -0.030966        -0.8426
 109   1.0000      -0.012339        -0.3358
 110   1.0000      -0.007888        -0.2146
 111   1.0000      -0.002923        -0.0795
 112   1.0000       0.005952         0.1620
 113   1.0000       0.011338         0.3085
 114   1.0000       0.031141         0.8474
 115   1.0000       0.056321         1.5326
 116   0.0000       0.183205         4.9853
 117   0.0000       0.189078         5.1451
 118   0.0000       0.196868         5.3570
 119   0.0000       0.198710         5.4072
 120   0.0000       0.201188         5.4746

MULLIKEN ATOMIC CHARGES AND SPIN POPULATIONS
--------------------------------------------
   0 V :    0.446298    1.198932
   1 S :   -0.249656   -0.023938
   2 S :   -0.251836   -0.024029
   3 S :   -0.249943   -0.023895
   4 S :   -0.252024   -0.023940
   5 O :   -0.504777   -0.138755
   6 C :   -0.121158    0.008762
   7 C :   -0.120008    0.008777
   8 C :   -0.124714    0.008839
   9 C :   -0.125639    0.008763
  10 S :   -0.040779   -0.000171
  11 S :   -0.040623   -0.000198
  12 S :   -0.034574   -0.000172
  13 S :   -0.034757   -0.000192
  14 C :   -0.344873    0.000298
  15 C :   -0.349148    0.000325
  16 C :   -0.343935    0.000282
  17 C :   -0.348049    0.000343
  18 C :   -0.096326    0.000137
  19 H :    0.149748   -0.000111
  20 H :    0.110452    0.000016
  21 H :    0.041158    0.000030
  22 H :    0.080225    0.000020
  23 H :    0.110450    0.000017
  24 H :    0.150191   -0.000112
  25 C :   -0.111461    0.000135
  26 H :    0.115612    0.000024
  27 H :    0.151628   -0.000126
  28 H :    0.081833    0.000019
  29 H :    0.038926    0.000021
  30 H :    0.152212   -0.000123
  31 H :    0.115548    0.000021
Sum of atomic charges         :   -2.0000000

LOEWDIN ATOMIC CHARGES AND SPIN POPULATIONS
-------------------------------------------
   0 V :   -0.243667    1.153055
   1 S :    0.093300   -0.016182
   2 S :    0.090872   -0.016276
   3 S :    0.093028   -0.016139
   4 S :    0.090622   -0.016234
   5 O :   -0.348959   -0.124192
   6 C :   -0.553585    0.009915
   7 C :   -0.553139    0.009888
   8 C :   -0.554130    0.009903
   9 C :   -0.554491    0.009907
  10 S :    0.343256   -0.001042
  11 S :    0.343165   -0.001054
  12 S :    0.350721   -0.001049
  13 S :    0.350711   -0.001054
  14 C :   -0.304791    0.000160
  15 C :   -0.319437    0.000162
  16 C :   -0.304898    0.000152
  17 C :   -0.319548    0.000171
  18 C :   -0.183165   -0.000027
  19 H :    0.067235   -0.000029
  20 H :    0.050415    0.000001
  21 H :    0.042873    0.000015
  22 H :    0.051103    0.000012
  23 H :    0.050403    0.000003
  24 H :    0.067365   -0.000029
  25 C :   -0.184998   -0.000004
  26 H :    0.055190    0.000004
  27 H :    0.070531   -0.000032
  28 H :    0.049108    0.000010
  29 H :    0.039167    0.000014
  30 H :    0.070588   -0.000032
  31 H :    0.055154    0.000003

  Mayer bond orders larger than 0.100000
B(  0-V ,  1-S ) :   0.7871 B(  0-V ,  2-S ) :   0.7906 B(  0-V ,  3-S ) :   0.7889
B(  0-V ,  4-S ) :   0.7882 B(  0-V ,  5-O ) :   2.1102 B(  1-S ,  8-C ) :   1.1426
B(  2-S ,  6-C ) :   1.1397 B(  3-S ,  9-C ) :   1.1414 B(  4-S ,  7-C ) :   1.1405
B(  6-C ,  7-C ) :   1.4983 B(  6-C , 10-S ) :   0.9565 B(  7-C , 11-S ) :   0.9565
B(  8-C ,  9-C ) :   1.4810 B(  8-C , 13-S ) :   0.9602 B(  9-C , 12-S ) :   0.9606
B( 10-S , 16-C ) :   1.0055 B( 11-S , 14-C ) :   1.0054 B( 12-S , 15-C ) :   1.0096
B( 13-S , 17-C ) :   1.0099 B( 14-C , 18-C ) :   0.8748 B( 14-C , 23-H ) :   0.9592
B( 14-C , 24-H ) :   0.9802 B( 15-C , 25-C ) :   0.8700 B( 15-C , 30-H ) :   0.9840
B( 15-C , 31-H ) :   0.9467 B( 16-C , 18-C ) :   0.8746 B( 16-C , 19-H ) :   0.9801
B( 16-C , 20-H ) :   0.9592 B( 17-C , 25-C ) :   0.8701 B( 17-C , 26-H ) :   0.9468
B( 17-C , 27-H ) :   0.9840 B( 18-C , 21-H ) :   0.9524 B( 18-C , 22-H ) :   0.9715
B( 25-C , 28-H ) :   0.9679 B( 25-C , 29-H ) :   0.9514

FINAL SINGLE POINT ENERGY     -4592.691100485162

DIPOLE MOMENT
-------------
                                X             Y             Z
Electronic contribution:     18.79232      14.33287     -12.49025
Nuclear contribution   :    -20.99761     -15.89055      13.96444
                        -----------------------------------------
Total Dipole Moment    :     -2.20529      -1.55769       1.47419
                        -----------------------------------------
Magnitude (a.u.)       :      3.07619
Magnitude (Debye)      :      7.81905

Rotational constants in cm-1:     0.012711     0.002549     0.002427
Rotational constants in MHz :   381.056285    76.423573    72.755726

                             ****ORCA TERMINATED NORMALLY****
TOTAL RUN TIME: 0 days 0 hours 27 minutes 27 seconds 595 msec
