                         Program Version 5.0.4 -  RELEASE  -
|  1> ! nofrozencore ReducedPop printbasis
|  2> ! B3LYP TZVP
|  3>
|  4> %basis
|  5> newgto V "CP(PPP)" end
|  6> end
|  7>
|  8> %pal
|  9> nprocs 8
| 10> end
| 11>
| 12> % sym SymThresh 1e-2 end
| 13> * xyz -2 2
| 14> V 0.819403970762426 0.7529835928319522 -0.11383555590699226
| 15> S 0.2807818954568403 0.8018683963720702 2.2825489978936595
| 16> S 1.9814261858522675 -1.3811324089870096 0.2357917720737418
| 17> S -1.3823622700136258 1.7913160535733619 -0.34350838583378335
| 18> S 0.23689582356895014 -0.23951303963737494 -2.2729870347558636
| 19> O 1.9348235551808028 1.8685316652461619 -0.36037462457132535
| 20> C 2.0707784983442035 -2.085701945216827 -1.3887579395002816
| 21> C 1.3343928758699413 -1.6127880046979397 -2.430128909765485
| 22> C -1.0791957121839582 1.934287820340619 2.384339494205197
| 23> C -1.7762082710122185 2.33797182934101 1.2880200828149522
| 24> S 3.1984488345630355 -3.486166973047787 -1.5576972672500216
| 25> S 1.3620365757869566 -2.3610425888691418 -4.0736353084033725
| 26> S -3.210175417794933 3.432121413208196 1.3820176294164621
| 27> S -1.4879841988751055 2.4966045837503317 4.0516600515384855
| 28> C 0.6058349275652032 -4.0203813025624555 -3.7806198037106666
| 29> C -4.452201924791263 2.397125311627089 2.2739503759861828
| 30> C 2.0565104988467975 -4.912683671898111 -1.8307124879444028
| 31> C -3.1156941413703994 1.6859565026684817 4.375740004366922
| 32> C 1.549840052021478 -5.1073260040723865 -3.2615318430279125
| 33> H 1.2232492959070487 -4.798325281723055 -1.1307275248587854
| 34> H 2.633673836124437 -5.792963197263771 -1.5240610832279962
| 35> H 1.0114975677616256 -6.068384455484312 -3.2994941379880776
| 36> H 2.4074500969047157 -5.194486161639194 -3.940371770005768
| 37> H 0.20426112228712887 -4.319133338392516 -4.7558690272565665
| 38> H -0.23910463358226425 -3.874526325430415 -3.100888459823438
| 39> C -4.347103201650469 2.389430485417525 3.800546226303083
| 40> H -3.193556223149628 1.6486029454138023 5.468783140250143
| 41> H -3.042906328178381 0.6567997268727086 4.01054282432801
| 42> H -4.3778201552137945 3.4228029863507583 4.168647994551735
| 43> H -5.240552150319049 1.8806616152634819 4.197684218889023
| 44> H -4.3798021506525435 1.3836414301952125 1.867430709406028
| 45> H -5.423442284498481 2.809423061675974 1.9758799172781445
| 46> *
| 47>
| 48> % eprnmr
| 49> gtensor true
| 50> Nuclei = all H {aiso,adip,aorb,fgrad,rho}
| 51> Nuclei = all V {aiso,adip,aorb,fgrad,rho}
| 52> end
| 53>
| 54>                          ****END OF INPUT****

CARTESIAN COORDINATES (ANGSTROEM)
---------------------------------
  V      0.820271    0.753759   -0.114070
  S      0.281649    0.802644    2.282314
  S      1.982293   -1.380357    0.235557
  S     -1.381495    1.792092   -0.343743
  S      0.237763   -0.238737   -2.273222
  O      1.935691    1.869307   -0.360609
  C      2.071646   -2.084926   -1.388992
  C      1.335260   -1.612012   -2.430363
  C     -1.078329    1.935064    2.384105
  C     -1.775341    2.338748    1.287786
  S      3.199316   -3.485391   -1.557932
  S      1.362904   -2.360267   -4.073870
  S     -3.209308    3.432897    1.381783
  S     -1.487117    2.497380    4.051425
  C      0.606702   -4.019606   -3.780854
  C     -4.451335    2.397901    2.273716
  C      2.057378   -4.911908   -1.830947
  C     -3.114827    1.686732    4.375505
  C      1.550707   -5.106550   -3.261766
  H      1.224116   -4.797550   -1.130962
  H      2.634541   -5.792187   -1.524296
  H      1.012365   -6.067609   -3.299729
  H      2.408317   -5.193710   -3.940606
  H      0.205128   -4.318358   -4.756104
  H     -0.238238   -3.873751   -3.101123
  C     -4.346236    2.390206    3.800312
  H     -3.192689    1.649379    5.468549
  H     -3.042039    0.657575    4.010308
  H     -4.376953    3.423579    4.168413
  H     -5.239685    1.881437    4.197450
  H     -4.378935    1.384417    1.867196
  H     -5.422575    2.810199    1.975645

 Total Charge           Charge          ....   -2
 Multiplicity           Mult            ....    2
 Number of Electrons    NEL             ....  233
 Basis Dimension        Dim             ....  517

ORBITAL ENERGIES
----------------
                 SPIN UP ORBITALS
  NO   OCC          E(Eh)            E(eV)
   0   1.0000    -196.640139     -5350.8502
   1   1.0000     -88.676703     -2413.0158
   2   1.0000     -88.676587     -2413.0126
   3   1.0000     -88.676461     -2413.0092
   4   1.0000     -88.676347     -2413.0061
   5   1.0000     -88.612101     -2411.2579
   6   1.0000     -88.611948     -2411.2537
   7   1.0000     -88.611909     -2411.2526
   8   1.0000     -88.611891     -2411.2521
   9   1.0000     -22.015912      -599.0834
  10   1.0000     -18.857151      -513.1292
  11   1.0000     -18.522748      -504.0296
  12   1.0000     -18.516960      -503.8721
  13   1.0000     -18.516922      -503.8711
  14   1.0000     -10.015968      -272.5483
  15   1.0000     -10.015953      -272.5479
  16   1.0000     -10.015900      -272.5465
  17   1.0000     -10.015836      -272.5448
  18   1.0000     -10.005169      -272.2545
  19   1.0000     -10.005086      -272.2522
  20   1.0000      -9.992031      -271.8970
  21   1.0000      -9.991968      -271.8953
  22   1.0000      -9.991303      -271.8772
  23   1.0000      -9.991264      -271.8761
  24   1.0000      -7.730332      -210.3530
  25   1.0000      -7.730222      -210.3500
  26   1.0000      -7.730029      -210.3448
  27   1.0000      -7.729940      -210.3423
  28   1.0000      -7.666447      -208.6146
  29   1.0000      -7.666416      -208.6138
  30   1.0000      -7.666345      -208.6118
  31   1.0000      -7.666221      -208.6085
  32   1.0000      -5.695577      -154.9845
  33   1.0000      -5.695460      -154.9814
  34   1.0000      -5.695287      -154.9766
  35   1.0000      -5.695198      -154.9742
  36   1.0000      -5.691679      -154.8785
  37   1.0000      -5.691579      -154.8757
  38   1.0000      -5.691393      -154.8707
  39   1.0000      -5.691302      -154.8682
  40   1.0000      -5.685091      -154.6992
  41   1.0000      -5.684974      -154.6960
  42   1.0000      -5.684771      -154.6905
  43   1.0000      -5.684679      -154.6880
  44   1.0000      -5.631264      -153.2345
  45   1.0000      -5.631241      -153.2339
  46   1.0000      -5.631240      -153.2338
  47   1.0000      -5.631113      -153.2304
  48   1.0000      -5.624854      -153.0601
  49   1.0000      -5.624824      -153.0593
  50   1.0000      -5.624821      -153.0592
  51   1.0000      -5.624701      -153.0559
  52   1.0000      -5.624446      -153.0490
  53   1.0000      -5.624417      -153.0482
  54   1.0000      -5.624310      -153.0453
  55   1.0000      -5.624173      -153.0415
  56   1.0000      -2.409579       -65.5680
  57   1.0000      -1.450958       -39.4826
  58   1.0000      -1.439352       -39.1668
  59   1.0000      -1.438251       -39.1368
  60   1.0000      -0.643045       -17.4981
  61   1.0000      -0.642953       -17.4957
  62   1.0000      -0.618181       -16.8215
  63   1.0000      -0.593128       -16.1398
  64   1.0000      -0.592649       -16.1268
  65   1.0000      -0.575431       -15.6583
  66   1.0000      -0.575394       -15.6573
  67   1.0000      -0.491315       -13.3694
  68   1.0000      -0.489357       -13.3161
  69   1.0000      -0.487026       -13.2526
  70   1.0000      -0.485838       -13.2203
  71   1.0000      -0.422862       -11.5067
  72   1.0000      -0.419904       -11.4262
  73   1.0000      -0.412312       -11.2196
  74   1.0000      -0.407097       -11.0777
  75   1.0000      -0.376067       -10.2333
  76   1.0000      -0.372835       -10.1454
  77   1.0000      -0.292327        -7.9546
  78   1.0000      -0.292086        -7.9481
  79   1.0000      -0.277244        -7.5442
  80   1.0000      -0.276946        -7.5361
  81   1.0000      -0.260547        -7.0898
  82   1.0000      -0.255646        -6.9565
  83   1.0000      -0.241713        -6.5773
  84   1.0000      -0.238712        -6.4957
  85   1.0000      -0.195225        -5.3123
  86   1.0000      -0.192636        -5.2419
  87   1.0000      -0.191953        -5.2233
  88   1.0000      -0.191519        -5.2115
  89   1.0000      -0.184322        -5.0156
  90   1.0000      -0.184035        -5.0078
  91   1.0000      -0.180798        -4.9198
  92   1.0000      -0.150411        -4.0929
  93   1.0000      -0.149960        -4.0806
  94   1.0000      -0.143426        -3.9028
  95   1.0000      -0.143204        -3.8968
  96   1.0000      -0.141595        -3.8530
  97   1.0000      -0.097533        -2.6540
  98   1.0000      -0.096168        -2.6169
  99   1.0000      -0.089391        -2.4325
 100   1.0000      -0.083221        -2.2646
 101   1.0000      -0.081233        -2.2105
 102   1.0000      -0.080170        -2.1815
 103   1.0000      -0.069651        -1.8953
 104   1.0000      -0.049945        -1.3591
 105   1.0000      -0.038019        -1.0346
 106   1.0000      -0.037737        -1.0269
 107   1.0000      -0.035633        -0.9696
 108   1.0000      -0.032013        -0.8711
 109   1.0000      -0.012973        -0.3530
 110   1.0000      -0.004260        -0.1159
 111   1.0000      -0.003197        -0.0870
 112   1.0000       0.006429         0.1750
 113   1.0000       0.009892         0.2692
 114   1.0000       0.017073         0.4646
 115   1.0000       0.033680         0.9165
 116   1.0000       0.059978         1.6321
 117   0.0000       0.188282         5.1234
 118   0.0000       0.195707         5.3255
 119   0.0000       0.196349         5.3429
 120   0.0000       0.196651         5.3511
 121   0.0000       0.211512         5.7555

                 SPIN DOWN ORBITALS
  NO   OCC          E(Eh)            E(eV)
   0   1.0000    -196.640279     -5350.8540
   1   1.0000     -88.676715     -2413.0161
   2   1.0000     -88.676599     -2413.0129
   3   1.0000     -88.676475     -2413.0096
   4   1.0000     -88.676362     -2413.0065
   5   1.0000     -88.612256     -2411.2621
   6   1.0000     -88.612104     -2411.2579
   7   1.0000     -88.612073     -2411.2571
   8   1.0000     -88.612055     -2411.2566
   9   1.0000     -22.001242      -598.6842
  10   1.0000     -18.860723      -513.2264
  11   1.0000     -18.517617      -503.8900
  12   1.0000     -18.501472      -503.4507
  13   1.0000     -18.500782      -503.4319
  14   1.0000     -10.015963      -272.5482
  15   1.0000     -10.015950      -272.5479
  16   1.0000     -10.015895      -272.5464
  17   1.0000     -10.015834      -272.5447
  18   1.0000     -10.005169      -272.2545
  19   1.0000     -10.005086      -272.2522
  20   1.0000      -9.991782      -271.8902
  21   1.0000      -9.991714      -271.8884
  22   1.0000      -9.991046      -271.8702
  23   1.0000      -9.991012      -271.8692
  24   1.0000      -7.730345      -210.3534
  25   1.0000      -7.730235      -210.3504
  26   1.0000      -7.730043      -210.3452
  27   1.0000      -7.729955      -210.3428
  28   1.0000      -7.666600      -208.6188
  29   1.0000      -7.666568      -208.6179
  30   1.0000      -7.666489      -208.6158
  31   1.0000      -7.666366      -208.6124
  32   1.0000      -5.695593      -154.9850
  33   1.0000      -5.695476      -154.9818
  34   1.0000      -5.695304      -154.9771
  35   1.0000      -5.695216      -154.9747
  36   1.0000      -5.691698      -154.8790
  37   1.0000      -5.691598      -154.8763
  38   1.0000      -5.691415      -154.8713
  39   1.0000      -5.691324      -154.8688
  40   1.0000      -5.685106      -154.6996
  41   1.0000      -5.684989      -154.6964
  42   1.0000      -5.684790      -154.6910
  43   1.0000      -5.684698      -154.6885
  44   1.0000      -5.631436      -153.2392
  45   1.0000      -5.631413      -153.2385
  46   1.0000      -5.631411      -153.2385
  47   1.0000      -5.631284      -153.2350
  48   1.0000      -5.625263      -153.0712
  49   1.0000      -5.625229      -153.0703
  50   1.0000      -5.625197      -153.0694
  51   1.0000      -5.625075      -153.0661
  52   1.0000      -5.624583      -153.0527
  53   1.0000      -5.624554      -153.0519
  54   1.0000      -5.624443      -153.0489
  55   1.0000      -5.624306      -153.0451
  56   1.0000      -2.365395       -64.3657
  57   1.0000      -1.432122       -38.9700
  58   1.0000      -1.377945       -37.4958
  59   1.0000      -1.377286       -37.4779
  60   1.0000      -0.642996       -17.4968
  61   1.0000      -0.642902       -17.4943
  62   1.0000      -0.625831       -17.0297
  63   1.0000      -0.592942       -16.1348
  64   1.0000      -0.592442       -16.1212
  65   1.0000      -0.575425       -15.6581
  66   1.0000      -0.575389       -15.6571
  67   1.0000      -0.491345       -13.3702
  68   1.0000      -0.489395       -13.3171
  69   1.0000      -0.487027       -13.2527
  70   1.0000      -0.485858       -13.2209
  71   1.0000      -0.423104       -11.5133
  72   1.0000      -0.420215       -11.4346
  73   1.0000      -0.412325       -11.2199
  74   1.0000      -0.407195       -11.0804
  75   1.0000      -0.376021       -10.2321
  76   1.0000      -0.372864       -10.1461
  77   1.0000      -0.292304        -7.9540
  78   1.0000      -0.292075        -7.9478
  79   1.0000      -0.277220        -7.5435
  80   1.0000      -0.276932        -7.5357
  81   1.0000      -0.260346        -7.0844
  82   1.0000      -0.255612        -6.9555
  83   1.0000      -0.241608        -6.5745
  84   1.0000      -0.238638        -6.4937
  85   1.0000      -0.194781        -5.3003
  86   1.0000      -0.192587        -5.2406
  87   1.0000      -0.191900        -5.2219
  88   1.0000      -0.191494        -5.2108
  89   1.0000      -0.184264        -5.0141
  90   1.0000      -0.183983        -5.0064
  91   1.0000      -0.178704        -4.8628
  92   1.0000      -0.149747        -4.0748
  93   1.0000      -0.149654        -4.0723
  94   1.0000      -0.143241        -3.8978
  95   1.0000      -0.142878        -3.8879
  96   1.0000      -0.141509        -3.8507
  97   1.0000      -0.096265        -2.6195
  98   1.0000      -0.095402        -2.5960
  99   1.0000      -0.089535        -2.4364
 100   1.0000      -0.083259        -2.2656
 101   1.0000      -0.081953        -2.2301
 102   1.0000      -0.080781        -2.1981
 103   1.0000      -0.070948        -1.9306
 104   1.0000      -0.045846        -1.2475
 105   1.0000      -0.038183        -1.0390
 106   1.0000      -0.037016        -1.0073
 107   1.0000      -0.034594        -0.9413
 108   1.0000      -0.031934        -0.8690
 109   1.0000      -0.012070        -0.3284
 110   1.0000      -0.005593        -0.1522
 111   1.0000      -0.002163        -0.0589
 112   1.0000       0.007272         0.1979
 113   1.0000       0.011418         0.3107
 114   1.0000       0.033934         0.9234
 115   1.0000       0.059192         1.6107
 116   0.0000       0.185273         5.0415
 117   0.0000       0.189693         5.1618
 118   0.0000       0.196314         5.3420
 119   0.0000       0.196387         5.3440
 120   0.0000       0.196968         5.3598

MULLIKEN ATOMIC CHARGES AND SPIN POPULATIONS
--------------------------------------------
   0 V :    0.449245    1.198872
   1 S :   -0.264210   -0.022184
   2 S :   -0.264211   -0.022073
   3 S :   -0.244099   -0.026033
   4 S :   -0.244252   -0.025936
   5 O :   -0.506659   -0.138644
   6 C :   -0.114441    0.009487
   7 C :   -0.118301    0.008258
   8 C :   -0.113630    0.009598
   9 C :   -0.118774    0.008224
  10 S :   -0.046788   -0.000323
  11 S :   -0.043086   -0.000059
  12 S :   -0.043487   -0.000052
  13 S :   -0.046966   -0.000377
  14 C :   -0.340151    0.000164
  15 C :   -0.339655    0.000162
  16 C :   -0.334974    0.000404
  17 C :   -0.335213    0.000447
  18 C :   -0.084025    0.000135
  19 H :    0.144704   -0.000126
  20 H :    0.101011    0.000038
  21 H :    0.044554    0.000037
  22 H :    0.078296    0.000017
  23 H :    0.101781    0.000009
  24 H :    0.148479   -0.000075
  25 C :   -0.083807    0.000137
  26 H :    0.100776    0.000045
  27 H :    0.145130   -0.000134
  28 H :    0.078094    0.000012
  29 H :    0.044546    0.000034
  30 H :    0.148564   -0.000075
  31 H :    0.101548    0.000011
Sum of atomic charges         :   -2.0000000

LOEWDIN ATOMIC CHARGES AND SPIN POPULATIONS
-------------------------------------------
   0 V :   -0.241172    1.153175
   1 S :    0.080230   -0.014977
   2 S :    0.080303   -0.014892
   3 S :    0.094096   -0.017742
   4 S :    0.093997   -0.017704
   5 O :   -0.350921   -0.124123
   6 C :   -0.552664    0.010644
   7 C :   -0.551731    0.009280
   8 C :   -0.552036    0.010654
   9 C :   -0.551866    0.009271
  10 S :    0.335490   -0.001149
  11 S :    0.336271   -0.000922
  12 S :    0.336045   -0.000921
  13 S :    0.335229   -0.001176
  14 C :   -0.293784    0.000118
  15 C :   -0.293770    0.000116
  16 C :   -0.294535    0.000211
  17 C :   -0.294611    0.000232
  18 C :   -0.185111   -0.000037
  19 H :    0.065633   -0.000033
  20 H :    0.047326    0.000011
  21 H :    0.046672    0.000017
  22 H :    0.053664    0.000012
  23 H :    0.047549    0.000001
  24 H :    0.066896   -0.000020
  25 C :   -0.185074   -0.000038
  26 H :    0.047298    0.000015
  27 H :    0.065738   -0.000034
  28 H :    0.053668    0.000011
  29 H :    0.046664    0.000017
  30 H :    0.066973   -0.000020
  31 H :    0.047533    0.000002

  Mayer bond orders larger than 0.100000
B(  0-V ,  1-S ) :   0.7881 B(  0-V ,  2-S ) :   0.7902 B(  0-V ,  3-S ) :   0.7893
B(  0-V ,  4-S ) :   0.7868 B(  0-V ,  5-O ) :   2.1082 B(  1-S ,  8-C ) :   1.1302
B(  2-S ,  6-C ) :   1.1289 B(  3-S ,  9-C ) :   1.1431 B(  4-S ,  7-C ) :   1.1436
B(  6-C ,  7-C ) :   1.5180 B(  6-C , 10-S ) :   0.9489 B(  7-C , 11-S ) :   0.9565
B(  8-C ,  9-C ) :   1.5187 B(  8-C , 13-S ) :   0.9485 B(  9-C , 12-S ) :   0.9564
B( 10-S , 16-C ) :   1.0070 B( 11-S , 14-C ) :   1.0044 B( 12-S , 15-C ) :   1.0044
B( 13-S , 17-C ) :   1.0073 B( 14-C , 18-C ) :   0.8782 B( 14-C , 23-H ) :   0.9702
B( 14-C , 24-H ) :   0.9747 B( 15-C , 25-C ) :   0.8781 B( 15-C , 30-H ) :   0.9746
B( 15-C , 31-H ) :   0.9701 B( 16-C , 18-C ) :   0.8784 B( 16-C , 19-H ) :   0.9751
B( 16-C , 20-H ) :   0.9695 B( 17-C , 25-C ) :   0.8780 B( 17-C , 26-H ) :   0.9695
B( 17-C , 27-H ) :   0.9749 B( 18-C , 21-H ) :   0.9526 B( 18-C , 22-H ) :   0.9735
B( 25-C , 28-H ) :   0.9737 B( 25-C , 29-H ) :   0.9526

FINAL SINGLE POINT ENERGY     -4592.723813496687

DIPOLE MOMENT
-------------
                                X             Y             Z
Electronic contribution:     18.87494      18.48038      -3.80953
Nuclear contribution   :    -21.06116     -20.59721       4.22218
                        -----------------------------------------
Total Dipole Moment    :     -2.18622      -2.11683       0.41264
                        -----------------------------------------
Magnitude (a.u.)       :      3.07096
Magnitude (Debye)      :      7.80576

Rotational constants in cm-1:     0.012754     0.002549     0.002429
Rotational constants in MHz :   382.359570    76.419705    72.818904

                             ****ORCA TERMINATED NORMALLY****
TOTAL RUN TIME: 0 days 0 hours 27 minutes 33 seconds 22 msec
