                         Program Version 5.0.4 -  RELEASE  -
|  1> ! nofrozencore ReducedPop printbasis
|  2> ! B3LYP TZVP
|  3>
|  4> %basis
|  5> newgto V "CP(PPP)" end
|  6> end
|  7>
|  8> %pal
|  9> nprocs 8
| 10> end
| 11>
| 12> % sym SymThresh 1e-2 end
| 13> * xyz -2 2
| 14> V 0.39201656883688746 -0.9423096505012439 -0.44999445708094793
| 15> S 1.6448583951564402 -0.527290910203087 1.6148563870643666
| 16> S -1.4826662194256912 -1.5274769221208624 1.013010149313473
| 17> S 1.7353274388169184 0.9183420635036204 -1.305981151433292
| 18> S -1.382776401387722 -0.10854404213905289 -1.9206494334131714
| 19> O 0.9576893418811604 -2.291094049502617 -1.090369238980507
| 20> C -2.8986624577758047 -1.4218274714451062 -0.038497439189452996
| 21> C -2.8589279010245545 -0.8250655294098123 -1.2591371122511008
| 22> C 3.0011070194714695 0.4802076349863177 1.0948026720157926
| 23> C 3.0392329648712257 1.0830357031453497 -0.1230233137194537
| 24> S -4.409664972588032 -2.121706629440944 0.6504278156271815
| 25> S -4.308472089558594 -0.6874914009585525 -2.328102767210167
| 26> S 4.403679934540338 2.142398297672292 -0.6436482842000502
| 27> S 4.312224629823124 0.6749130914742827 2.3194282140181564
| 28> C -5.445674206005547 0.4581941516034655 -1.319440030620657
| 29> C 4.243886759613845 3.601065422095416 0.4763975691720727
| 30> C -5.424454984132542 -0.6850694536131057 1.0008508410192143
| 31> C 4.174051926886044 2.4545756584036305 2.7928484268476326
| 32> C -6.241316707263575 -0.0731336687137206 -0.39064877854414476
| 33> H -4.692669337472133 0.002793387074618415 1.450586811949739
| 34> H -6.152050294018916 -0.9603400518037428 1.771113135506696
| 35> H -6.937745922231369 0.7875771054962413 -0.2191061244104569
| 36> H -6.843948407502538 -0.870548155280189 -0.8402491433382958
| 37> H -6.076319980543092 0.8848273724876711 -2.1076383593202985
| 38> H -4.898313972655548 1.2854696911222991 -0.8445107691565332
| 39> C 4.8632269847299865 3.45351995054236 1.867430638575627
| 40> H 4.623642907464457 2.512059553013201 3.789193639692586
| 41> H 3.1102569903690123 2.6804802503714513 2.893404510316402
| 42> H 5.918719963242142 3.179364790321505 1.763998303632356
| 43> H 4.834914859699825 4.440228640879688 2.357510559104995
| 44> H 3.1803117385947965 3.840583588913936 0.5415609824822043
| 45> H 4.738779987049544 4.418429590595562 -0.05753162460116664
| 46> *
| 47>
| 48> % eprnmr
| 49> gtensor true
| 50> Nuclei = all H {aiso,adip,aorb,fgrad,rho}
| 51> Nuclei = all V {aiso,adip,aorb,fgrad,rho}
| 52> end
| 53>
| 54>                          ****END OF INPUT****

CARTESIAN COORDINATES (ANGSTROEM)
---------------------------------
  V      0.392356   -0.943337   -0.450481
  S      1.645198   -0.528319    1.614370
  S     -1.482326   -1.528505    1.012523
  S      1.735667    0.917314   -1.306468
  S     -1.382436   -0.109572   -1.921136
  O      0.958029   -2.292122   -1.090856
  C     -2.898323   -1.422855   -0.038984
  C     -2.858588   -0.826093   -1.259624
  C      3.001447    0.479180    1.094316
  C      3.039573    1.082008   -0.123510
  S     -4.409325   -2.122734    0.649941
  S     -4.308132   -0.688519   -2.328590
  S      4.404020    2.141371   -0.644135
  S      4.312565    0.673885    2.318941
  C     -5.445334    0.457166   -1.319927
  C      4.244227    3.600038    0.475911
  C     -5.424115   -0.686097    1.000364
  C      4.174392    2.453548    2.792362
  C     -6.240977   -0.074161   -0.391136
  H     -4.692329    0.001766    1.450100
  H     -6.151710   -0.961368    1.770626
  H     -6.937406    0.786549   -0.219593
  H     -6.843608   -0.871576   -0.840736
  H     -6.075980    0.883800   -2.108125
  H     -4.897974    1.284442   -0.844998
  C      4.863567    3.452492    1.866944
  H      4.623983    2.511032    3.788707
  H      3.110597    2.679453    2.892918
  H      5.919060    3.178337    1.763512
  H      4.835255    4.439201    2.357024
  H      3.180652    3.839556    0.541074
  H      4.739120    4.417402   -0.058018

 Total Charge           Charge          ....   -2
 Multiplicity           Mult            ....    2
 Number of Electrons    NEL             ....  233
 Basis Dimension        Dim             ....  517

ORBITAL ENERGIES
----------------
                 SPIN UP ORBITALS
  NO   OCC          E(Eh)            E(eV)
   0   1.0000    -196.640034     -5350.8473
   1   1.0000     -88.676490     -2413.0100
   2   1.0000     -88.676366     -2413.0066
   3   1.0000     -88.676356     -2413.0063
   4   1.0000     -88.676157     -2413.0009
   5   1.0000     -88.612140     -2411.2589
   6   1.0000     -88.611867     -2411.2515
   7   1.0000     -88.611848     -2411.2510
   8   1.0000     -88.611727     -2411.2477
   9   1.0000     -22.015840      -599.0815
  10   1.0000     -18.857097      -513.1277
  11   1.0000     -18.522666      -504.0274
  12   1.0000     -18.516889      -503.8702
  13   1.0000     -18.516851      -503.8691
  14   1.0000     -10.024371      -272.7770
  15   1.0000     -10.015298      -272.5301
  16   1.0000     -10.015147      -272.5260
  17   1.0000     -10.005478      -272.2629
  18   1.0000     -10.004521      -272.2369
  19   1.0000     -10.003336      -272.2046
  20   1.0000      -9.992546      -271.9110
  21   1.0000      -9.991708      -271.8882
  22   1.0000      -9.990990      -271.8687
  23   1.0000      -9.990342      -271.8510
  24   1.0000      -7.730930      -210.3693
  25   1.0000      -7.730020      -210.3445
  26   1.0000      -7.730010      -210.3443
  27   1.0000      -7.729216      -210.3227
  28   1.0000      -7.666604      -208.6189
  29   1.0000      -7.666291      -208.6104
  30   1.0000      -7.666266      -208.6097
  31   1.0000      -7.666128      -208.6059
  32   1.0000      -5.696080      -154.9982
  33   1.0000      -5.695261      -154.9759
  34   1.0000      -5.695260      -154.9759
  35   1.0000      -5.694421      -154.9531
  36   1.0000      -5.692093      -154.8897
  37   1.0000      -5.691366      -154.8699
  38   1.0000      -5.691363      -154.8699
  39   1.0000      -5.690738      -154.8529
  40   1.0000      -5.685793      -154.7183
  41   1.0000      -5.684773      -154.6905
  42   1.0000      -5.684764      -154.6903
  43   1.0000      -5.683969      -154.6687
  44   1.0000      -5.631427      -153.2389
  45   1.0000      -5.631138      -153.2311
  46   1.0000      -5.631118      -153.2305
  47   1.0000      -5.630989      -153.2270
  48   1.0000      -5.625049      -153.0654
  49   1.0000      -5.624728      -153.0566
  50   1.0000      -5.624713      -153.0562
  51   1.0000      -5.624586      -153.0528
  52   1.0000      -5.624559      -153.0520
  53   1.0000      -5.624276      -153.0443
  54   1.0000      -5.624250      -153.0436
  55   1.0000      -5.624115      -153.0399
  56   1.0000      -2.409525       -65.5665
  57   1.0000      -1.450883       -39.4805
  58   1.0000      -1.439305       -39.1655
  59   1.0000      -1.438225       -39.1361
  60   1.0000      -0.658256       -17.9120
  61   1.0000      -0.643710       -17.5162
  62   1.0000      -0.618175       -16.8214
  63   1.0000      -0.607339       -16.5265
  64   1.0000      -0.593493       -16.1498
  65   1.0000      -0.575781       -15.6678
  66   1.0000      -0.572960       -15.5910
  67   1.0000      -0.501585       -13.6488
  68   1.0000      -0.490505       -13.3473
  69   1.0000      -0.486891       -13.2490
  70   1.0000      -0.472625       -12.8608
  71   1.0000      -0.422583       -11.4991
  72   1.0000      -0.419979       -11.4282
  73   1.0000      -0.410592       -11.1728
  74   1.0000      -0.402845       -10.9620
  75   1.0000      -0.375907       -10.2289
  76   1.0000      -0.372928       -10.1479
  77   1.0000      -0.301010        -8.1909
  78   1.0000      -0.292690        -7.9645
  79   1.0000      -0.286059        -7.7840
  80   1.0000      -0.277561        -7.5528
  81   1.0000      -0.259946        -7.0735
  82   1.0000      -0.255645        -6.9565
  83   1.0000      -0.242917        -6.6101
  84   1.0000      -0.239629        -6.5206
  85   1.0000      -0.211558        -5.7568
  86   1.0000      -0.194886        -5.3031
  87   1.0000      -0.192285        -5.2323
  88   1.0000      -0.191171        -5.2020
  89   1.0000      -0.184465        -5.0196
  90   1.0000      -0.181184        -4.9303
  91   1.0000      -0.162017        -4.4087
  92   1.0000      -0.149956        -4.0805
  93   1.0000      -0.148446        -4.0394
  94   1.0000      -0.143547        -3.9061
  95   1.0000      -0.142329        -3.8730
  96   1.0000      -0.137213        -3.7338
  97   1.0000      -0.097375        -2.6497
  98   1.0000      -0.095946        -2.6108
  99   1.0000      -0.088794        -2.4162
 100   1.0000      -0.083325        -2.2674
 101   1.0000      -0.080129        -2.1804
 102   1.0000      -0.079831        -2.1723
 103   1.0000      -0.069091        -1.8801
 104   1.0000      -0.050054        -1.3620
 105   1.0000      -0.038366        -1.0440
 106   1.0000      -0.037870        -1.0305
 107   1.0000      -0.035571        -0.9679
 108   1.0000      -0.031635        -0.8608
 109   1.0000      -0.012941        -0.3521
 110   1.0000      -0.004136        -0.1125
 111   1.0000      -0.003074        -0.0836
 112   1.0000       0.006333         0.1723
 113   1.0000       0.010754         0.2926
 114   1.0000       0.016359         0.4452
 115   1.0000       0.033710         0.9173
 116   1.0000       0.059879         1.6294
 117   0.0000       0.187775         5.1096
 118   0.0000       0.193384         5.2623
 119   0.0000       0.195381         5.3166
 120   0.0000       0.196565         5.3488
 121   0.0000       0.211550         5.7566

                 SPIN DOWN ORBITALS
  NO   OCC          E(Eh)            E(eV)
   0   1.0000    -196.640175     -5350.8512
   1   1.0000     -88.676502     -2413.0103
   2   1.0000     -88.676380     -2413.0070
   3   1.0000     -88.676369     -2413.0067
   4   1.0000     -88.676171     -2413.0013
   5   1.0000     -88.612299     -2411.2632
   6   1.0000     -88.612027     -2411.2558
   7   1.0000     -88.612008     -2411.2553
   8   1.0000     -88.611887     -2411.2520
   9   1.0000     -22.001170      -598.6823
  10   1.0000     -18.860672      -513.2250
  11   1.0000     -18.517537      -503.8878
  12   1.0000     -18.501394      -503.4485
  13   1.0000     -18.500718      -503.4301
  14   1.0000     -10.024367      -272.7769
  15   1.0000     -10.015294      -272.5300
  16   1.0000     -10.015143      -272.5259
  17   1.0000     -10.005475      -272.2628
  18   1.0000     -10.004521      -272.2369
  19   1.0000     -10.003335      -272.2046
  20   1.0000      -9.992291      -271.9041
  21   1.0000      -9.991454      -271.8813
  22   1.0000      -9.990738      -271.8618
  23   1.0000      -9.990090      -271.8442
  24   1.0000      -7.730944      -210.3697
  25   1.0000      -7.730034      -210.3449
  26   1.0000      -7.730024      -210.3447
  27   1.0000      -7.729230      -210.3230
  28   1.0000      -7.666751      -208.6229
  29   1.0000      -7.666439      -208.6144
  30   1.0000      -7.666415      -208.6137
  31   1.0000      -7.666276      -208.6100
  32   1.0000      -5.696097      -154.9987
  33   1.0000      -5.695278      -154.9764
  34   1.0000      -5.695277      -154.9764
  35   1.0000      -5.694438      -154.9535
  36   1.0000      -5.692112      -154.8902
  37   1.0000      -5.691386      -154.8705
  38   1.0000      -5.691383      -154.8704
  39   1.0000      -5.690759      -154.8534
  40   1.0000      -5.685808      -154.7187
  41   1.0000      -5.684790      -154.6910
  42   1.0000      -5.684781      -154.6907
  43   1.0000      -5.683987      -154.6691
  44   1.0000      -5.631598      -153.2436
  45   1.0000      -5.631310      -153.2357
  46   1.0000      -5.631289      -153.2352
  47   1.0000      -5.631161      -153.2317
  48   1.0000      -5.625437      -153.0759
  49   1.0000      -5.625120      -153.0673
  50   1.0000      -5.625107      -153.0669
  51   1.0000      -5.624951      -153.0627
  52   1.0000      -5.624721      -153.0564
  53   1.0000      -5.624411      -153.0480
  54   1.0000      -5.624385      -153.0473
  55   1.0000      -5.624249      -153.0436
  56   1.0000      -2.365340       -64.3642
  57   1.0000      -1.432061       -38.9683
  58   1.0000      -1.377888       -37.4942
  59   1.0000      -1.377247       -37.4768
  60   1.0000      -0.658235       -17.9115
  61   1.0000      -0.643660       -17.5149
  62   1.0000      -0.625811       -17.0292
  63   1.0000      -0.607192       -16.5225
  64   1.0000      -0.593296       -16.1444
  65   1.0000      -0.575776       -15.6677
  66   1.0000      -0.572898       -15.5894
  67   1.0000      -0.501576       -13.6486
  68   1.0000      -0.490535       -13.3481
  69   1.0000      -0.486903       -13.2493
  70   1.0000      -0.472701       -12.8629
  71   1.0000      -0.422815       -11.5054
  72   1.0000      -0.420258       -11.4358
  73   1.0000      -0.410633       -11.1739
  74   1.0000      -0.402924       -10.9641
  75   1.0000      -0.375864       -10.2278
  76   1.0000      -0.372953       -10.1486
  77   1.0000      -0.300994        -8.1905
  78   1.0000      -0.292673        -7.9640
  79   1.0000      -0.286039        -7.7835
  80   1.0000      -0.277542        -7.5523
  81   1.0000      -0.259762        -7.0685
  82   1.0000      -0.255614        -6.9556
  83   1.0000      -0.242804        -6.6070
  84   1.0000      -0.239552        -6.5186
  85   1.0000      -0.211524        -5.7559
  86   1.0000      -0.194434        -5.2908
  87   1.0000      -0.192236        -5.2310
  88   1.0000      -0.191080        -5.1996
  89   1.0000      -0.184410        -5.0181
  90   1.0000      -0.179112        -4.8739
  91   1.0000      -0.161906        -4.4057
  92   1.0000      -0.149301        -4.0627
  93   1.0000      -0.148145        -4.0312
  94   1.0000      -0.143238        -3.8977
  95   1.0000      -0.142210        -3.8697
  96   1.0000      -0.137048        -3.7293
  97   1.0000      -0.096196        -2.6176
  98   1.0000      -0.095117        -2.5883
  99   1.0000      -0.088953        -2.4205
 100   1.0000      -0.083172        -2.2632
 101   1.0000      -0.081994        -2.2312
 102   1.0000      -0.079600        -2.1660
 103   1.0000      -0.070290        -1.9127
 104   1.0000      -0.045913        -1.2494
 105   1.0000      -0.038432        -1.0458
 106   1.0000      -0.037232        -1.0131
 107   1.0000      -0.034583        -0.9411
 108   1.0000      -0.031537        -0.8582
 109   1.0000      -0.012036        -0.3275
 110   1.0000      -0.005476        -0.1490
 111   1.0000      -0.002065        -0.0562
 112   1.0000       0.007170         0.1951
 113   1.0000       0.011649         0.3170
 114   1.0000       0.033967         0.9243
 115   1.0000       0.059089         1.6079
 116   0.0000       0.185400         5.0450
 117   0.0000       0.188960         5.1419
 118   0.0000       0.193579         5.2675
 119   0.0000       0.195870         5.3299
 120   0.0000       0.196760         5.3541

MULLIKEN ATOMIC CHARGES AND SPIN POPULATIONS
--------------------------------------------
   0 V :    0.447703    1.199223
   1 S :   -0.254061   -0.024238
   2 S :   -0.256475   -0.023943
   3 S :   -0.253939   -0.024167
   4 S :   -0.252249   -0.024095
   5 O :   -0.506595   -0.138728
   6 C :   -0.144189    0.008785
   7 C :   -0.089013    0.008924
   8 C :   -0.115309    0.008932
   9 C :   -0.116610    0.008850
  10 S :   -0.031331   -0.000064
  11 S :   -0.061720   -0.000289
  12 S :   -0.044735   -0.000197
  13 S :   -0.045250   -0.000225
  14 C :   -0.358864    0.000201
  15 C :   -0.337654    0.000299
  16 C :   -0.322742    0.000320
  17 C :   -0.337850    0.000321
  18 C :   -0.056194    0.000138
  19 H :    0.152649   -0.000131
  20 H :    0.104671    0.000008
  21 H :    0.037850    0.000060
  22 H :    0.074044    0.000009
  23 H :    0.097557    0.000051
  24 H :    0.134728   -0.000065
  25 C :   -0.083915    0.000134
  26 H :    0.101516    0.000029
  27 H :    0.146576   -0.000109
  28 H :    0.078236    0.000012
  29 H :    0.044448    0.000035
  30 H :    0.147134   -0.000106
  31 H :    0.101582    0.000026
Sum of atomic charges         :   -2.0000000

LOEWDIN ATOMIC CHARGES AND SPIN POPULATIONS
-------------------------------------------
   0 V :   -0.242886    1.153208
   1 S :    0.087899   -0.016418
   2 S :    0.087224   -0.016182
   3 S :    0.087914   -0.016358
   4 S :    0.088259   -0.016338
   5 O :   -0.350949   -0.124181
   6 C :   -0.560186    0.009897
   7 C :   -0.546258    0.010034
   8 C :   -0.552538    0.009959
   9 C :   -0.553044    0.009963
  10 S :    0.356190   -0.000955
  11 S :    0.314120   -0.001105
  12 S :    0.336857   -0.001046
  13 S :    0.336376   -0.001056
  14 C :   -0.286046    0.000177
  15 C :   -0.293788    0.000167
  16 C :   -0.308196    0.000135
  17 C :   -0.293727    0.000180
  18 C :   -0.182856   -0.000038
  19 H :    0.067902   -0.000040
  20 H :    0.045780   -0.000008
  21 H :    0.053230    0.000027
  22 H :    0.050846    0.000011
  23 H :    0.048333    0.000026
  24 H :    0.067973   -0.000012
  25 C :   -0.184850   -0.000039
  26 H :    0.047253    0.000010
  27 H :    0.065863   -0.000027
  28 H :    0.053387    0.000010
  29 H :    0.046740    0.000018
  30 H :    0.065965   -0.000027
  31 H :    0.047211    0.000008

  Mayer bond orders larger than 0.100000
B(  0-V ,  1-S ) :   0.7884 B(  0-V ,  2-S ) :   0.7879 B(  0-V ,  3-S ) :   0.7907
B(  0-V ,  4-S ) :   0.7896 B(  0-V ,  5-O ) :   2.1080 B(  1-S ,  8-C ) :   1.1380
B(  2-S ,  6-C ) :   1.1304 B(  3-S ,  9-C ) :   1.1369 B(  4-S ,  7-C ) :   1.1413
B(  6-C ,  7-C ) :   1.5191 B(  6-C , 10-S ) :   0.9625 B(  7-C , 11-S ) :   0.9436
B(  8-C ,  9-C ) :   1.5180 B(  8-C , 13-S ) :   0.9530 B(  9-C , 12-S ) :   0.9539
B( 10-S , 16-C ) :   0.9969 B( 11-S , 14-C ) :   1.0034 B( 12-S , 15-C ) :   1.0051
B( 13-S , 17-C ) :   1.0056 B( 14-C , 18-C ) :   0.8754 B( 14-C , 23-H ) :   0.9849
B( 14-C , 24-H ) :   0.9722 B( 15-C , 25-C ) :   0.8781 B( 15-C , 30-H ) :   0.9751
B( 15-C , 31-H ) :   0.9699 B( 16-C , 18-C ) :   0.8305 B( 16-C , 19-H ) :   0.9736
B( 16-C , 20-H ) :   0.9567 B( 17-C , 25-C ) :   0.8782 B( 17-C , 26-H ) :   0.9703
B( 17-C , 27-H ) :   0.9751 B( 18-C , 21-H ) :   0.9480 B( 18-C , 22-H ) :   0.9735
B( 25-C , 28-H ) :   0.9738 B( 25-C , 29-H ) :   0.9526

FINAL SINGLE POINT ENERGY     -4592.674896684000

DIPOLE MOMENT
-------------
                                X             Y             Z
Electronic contribution:      9.36902     -22.59503     -10.68593
Nuclear contribution   :    -10.43699      25.18052      11.92800
                        -----------------------------------------
Total Dipole Moment    :     -1.06797       2.58549       1.24206
                        -----------------------------------------
Magnitude (a.u.)       :      3.06072
Magnitude (Debye)      :      7.77974

Rotational constants in cm-1:     0.012766     0.002548     0.002431
Rotational constants in MHz :   382.726544    76.397845    72.877944

                             ****ORCA TERMINATED NORMALLY****
TOTAL RUN TIME: 0 days 0 hours 27 minutes 34 seconds 147 msec
