                         Program Version 5.0.4 -  RELEASE  -
|  1> ! nofrozencore ReducedPop printbasis
|  2> ! B3LYP TZVP
|  3>
|  4> %basis
|  5> newgto V "CP(PPP)" end
|  6> end
|  7>
|  8> %pal
|  9> nprocs 4
| 10> end
| 11>
| 12> % sym SymThresh 1e-2 end
| 13> * xyz -2 2
| 14> V -0.3220288366398727 -0.9077882349878301 0.5563346553757463
| 15> S -0.5225927822334795 -1.4046157980980438 -1.8332596905340135
| 16> S 2.0961552294826977 -1.0623761251373072 0.22150299228809212
| 17> S -2.31149789887254 0.4586671690261791 0.15148727141361507
| 18> S 0.3013080207222603 0.7744107557392385 2.221549284083028
| 19> O -0.7858483272014563 -2.2137600760910296 1.3487747499082685
| 20> C 2.797413794667654 -0.18786212071483738 1.5902999338677084
| 21> C 2.0477007786262535 0.5799722614740591 2.4247217616147427
| 22> C -2.1350051291974896 -0.8257721419194923 -2.273058738625138
| 23> C -2.8818347365906973 -0.04825964347900013 -1.4446832590642504
| 24> S 4.560995269607508 -0.5017450346492632 1.8274799130944617
| 25> S 2.705387109155392 1.4055634009445528 3.8913058497832087
| 26> S -4.564868732727327 0.48941619069605624 -1.821848318805375
| 27> S -2.718291456093849 -1.434922933809436 -3.8714567283656804
| 28> C 3.815439312864507 2.678790685066866 3.144575794477374
| 29> C -4.28846906665313 1.6483420556080361 -3.232247967211844
| 30> C 5.291330860955711 1.1633740964381662 1.5059860074248286
| 31> C -2.8238214696690775 0.12101259890848455 -4.859016441654256
| 32> C 5.189156171760917 2.2400242232495744 2.6028133430255265
| 33> H 4.859494825815508 1.517604145784075 0.5581974182601438
| 34> H 6.361690650883193 0.963983375781541 1.3314553059897285
| 35> H 5.672557780943672 3.15474070086555 2.1925183504880272
| 36> H 5.810713679964699 1.9170194619302814 3.461202237586479
| 37> H 3.992450920711874 3.3998977893607916 3.9597322651878257
| 38> H 3.2267230692176914 3.190704234661869 2.3689439113746813
| 39> C -4.022294746114465 1.0583077930925353 -4.628418360875729
| 40> H -2.8617997692240342 -0.22166952021742953 -5.905228389903886
| 41> H -1.870665109294453 0.649226517881007 -4.716556946336859
| 42> H -4.938121527508552 0.5356400594868683 -4.96221938992277
| 43> H -3.885512279196518 1.921096375729424 -5.315288552237438
| 44> H -3.4811006166615925 2.3282670399525496 -2.9263012028371027
| 45> H -5.217386183010863 2.237681555169713 -3.288219591558719
| 46> *
| 47>
| 48> % eprnmr
| 49> gtensor true
| 50> Nuclei = all H {aiso,adip,aorb,fgrad,rho}
| 51> Nuclei = all V {aiso,adip,aorb,fgrad,rho}
| 52> end
| 53>
| 54>                          ****END OF INPUT****

CARTESIAN COORDINATES (ANGSTROEM)
---------------------------------
  V     -0.322304   -0.908750    0.556972
  S     -0.522868   -1.405578   -1.832622
  S      2.095880   -1.063338    0.222141
  S     -2.311773    0.457705    0.152125
  S      0.301032    0.773449    2.222187
  O     -0.786124   -2.214722    1.349413
  C      2.797138   -0.188824    1.590938
  C      2.047425    0.579010    2.425360
  C     -2.135281   -0.826734   -2.272421
  C     -2.882110   -0.049222   -1.444045
  S      4.560720   -0.502707    1.828118
  S      2.705112    1.404601    3.891944
  S     -4.565144    0.488454   -1.821210
  S     -2.718567   -1.435885   -3.870819
  C      3.815164    2.677829    3.145214
  C     -4.288745    1.647380   -3.231610
  C      5.291055    1.162412    1.506624
  C     -2.824097    0.120051   -4.858379
  C      5.188881    2.239062    2.603451
  H      4.859219    1.516642    0.558835
  H      6.361415    0.963021    1.332093
  H      5.672282    3.153779    2.193156
  H      5.810438    1.916057    3.461840
  H      3.992175    3.398936    3.960370
  H      3.226447    3.189742    2.369582
  C     -4.022570    1.057346   -4.627781
  H     -2.862075   -0.222632   -5.904591
  H     -1.870941    0.648265   -4.715919
  H     -4.938397    0.534678   -4.961582
  H     -3.885788    1.920134   -5.314651
  H     -3.481376    2.327305   -2.925663
  H     -5.217662    2.236720   -3.287582

 Total Charge           Charge          ....   -2
 Multiplicity           Mult            ....    2
 Number of Electrons    NEL             ....  233
 Basis Dimension        Dim             ....  517

ORBITAL ENERGIES
----------------
                 SPIN UP ORBITALS
  NO   OCC          E(Eh)            E(eV)
   0   1.0000    -196.639700     -5350.8383
   1   1.0000     -88.678245     -2413.0577
   2   1.0000     -88.678153     -2413.0552
   3   1.0000     -88.677938     -2413.0494
   4   1.0000     -88.677921     -2413.0489
   5   1.0000     -88.611560     -2411.2431
   6   1.0000     -88.611548     -2411.2428
   7   1.0000     -88.611520     -2411.2420
   8   1.0000     -88.611457     -2411.2403
   9   1.0000     -22.015546      -599.0734
  10   1.0000     -18.856826      -513.1203
  11   1.0000     -18.522354      -504.0189
  12   1.0000     -18.516601      -503.8623
  13   1.0000     -18.516566      -503.8614
  14   1.0000     -10.018883      -272.6277
  15   1.0000     -10.018858      -272.6270
  16   1.0000     -10.018334      -272.6127
  17   1.0000     -10.018289      -272.6115
  18   1.0000     -10.010260      -272.3930
  19   1.0000     -10.009467      -272.3714
  20   1.0000      -9.991974      -271.8954
  21   1.0000      -9.991881      -271.8929
  22   1.0000      -9.991253      -271.8758
  23   1.0000      -9.991166      -271.8735
  24   1.0000      -7.731666      -210.3893
  25   1.0000      -7.731586      -210.3871
  26   1.0000      -7.731373      -210.3813
  27   1.0000      -7.731362      -210.3811
  28   1.0000      -7.666037      -208.6035
  29   1.0000      -7.666024      -208.6031
  30   1.0000      -7.666005      -208.6026
  31   1.0000      -7.665917      -208.6002
  32   1.0000      -5.696933      -155.0214
  33   1.0000      -5.696854      -155.0193
  34   1.0000      -5.696631      -155.0132
  35   1.0000      -5.696626      -155.0131
  36   1.0000      -5.693010      -154.9147
  37   1.0000      -5.692930      -154.9125
  38   1.0000      -5.692719      -154.9068
  39   1.0000      -5.692710      -154.9065
  40   1.0000      -5.686446      -154.7361
  41   1.0000      -5.686360      -154.7337
  42   1.0000      -5.686150      -154.7280
  43   1.0000      -5.686142      -154.7278
  44   1.0000      -5.630878      -153.2240
  45   1.0000      -5.630874      -153.2239
  46   1.0000      -5.630858      -153.2234
  47   1.0000      -5.630779      -153.2213
  48   1.0000      -5.624436      -153.0487
  49   1.0000      -5.624421      -153.0483
  50   1.0000      -5.624412      -153.0480
  51   1.0000      -5.624321      -153.0456
  52   1.0000      -5.624028      -153.0376
  53   1.0000      -5.624027      -153.0375
  54   1.0000      -5.624003      -153.0369
  55   1.0000      -5.623912      -153.0344
  56   1.0000      -2.409219       -65.5582
  57   1.0000      -1.450625       -39.4735
  58   1.0000      -1.439128       -39.1607
  59   1.0000      -1.437779       -39.1240
  60   1.0000      -0.639848       -17.4112
  61   1.0000      -0.639499       -17.4017
  62   1.0000      -0.617912       -16.8142
  63   1.0000      -0.591856       -16.1052
  64   1.0000      -0.591414       -16.0932
  65   1.0000      -0.576980       -15.7004
  66   1.0000      -0.576939       -15.6993
  67   1.0000      -0.492213       -13.3938
  68   1.0000      -0.490445       -13.3457
  69   1.0000      -0.488258       -13.2862
  70   1.0000      -0.487163       -13.2564
  71   1.0000      -0.423509       -11.5243
  72   1.0000      -0.420708       -11.4481
  73   1.0000      -0.410491       -11.1700
  74   1.0000      -0.404632       -11.0106
  75   1.0000      -0.371946       -10.1212
  76   1.0000      -0.369449       -10.0532
  77   1.0000      -0.292836        -7.9685
  78   1.0000      -0.292742        -7.9659
  79   1.0000      -0.270139        -7.3509
  80   1.0000      -0.269324        -7.3287
  81   1.0000      -0.261335        -7.1113
  82   1.0000      -0.256365        -6.9760
  83   1.0000      -0.242925        -6.6103
  84   1.0000      -0.240820        -6.5531
  85   1.0000      -0.197134        -5.3643
  86   1.0000      -0.194006        -5.2792
  87   1.0000      -0.192731        -5.2445
  88   1.0000      -0.190912        -5.1950
  89   1.0000      -0.181621        -4.9422
  90   1.0000      -0.181002        -4.9253
  91   1.0000      -0.179430        -4.8825
  92   1.0000      -0.151349        -4.1184
  93   1.0000      -0.149902        -4.0790
  94   1.0000      -0.146473        -3.9857
  95   1.0000      -0.141304        -3.8451
  96   1.0000      -0.139775        -3.8035
  97   1.0000      -0.097251        -2.6463
  98   1.0000      -0.097094        -2.6421
  99   1.0000      -0.089151        -2.4259
 100   1.0000      -0.084252        -2.2926
 101   1.0000      -0.082457        -2.2438
 102   1.0000      -0.080305        -2.1852
 103   1.0000      -0.070758        -1.9254
 104   1.0000      -0.049356        -1.3430
 105   1.0000      -0.038231        -1.0403
 106   1.0000      -0.036823        -1.0020
 107   1.0000      -0.034598        -0.9415
 108   1.0000      -0.033253        -0.9049
 109   1.0000      -0.012865        -0.3501
 110   1.0000      -0.004890        -0.1331
 111   1.0000      -0.004124        -0.1122
 112   1.0000       0.005857         0.1594
 113   1.0000       0.010987         0.2990
 114   1.0000       0.016308         0.4438
 115   1.0000       0.034624         0.9422
 116   1.0000       0.060792         1.6542
 117   0.0000       0.187730         5.1084
 118   0.0000       0.192525         5.2389
 119   0.0000       0.193069         5.2537
 120   0.0000       0.194630         5.2961
 121   0.0000       0.211568         5.7571

                 SPIN DOWN ORBITALS
  NO   OCC          E(Eh)            E(eV)
   0   1.0000    -196.639839     -5350.8421
   1   1.0000     -88.678258     -2413.0581
   2   1.0000     -88.678166     -2413.0556
   3   1.0000     -88.677951     -2413.0497
   4   1.0000     -88.677934     -2413.0493
   5   1.0000     -88.611719     -2411.2475
   6   1.0000     -88.611707     -2411.2471
   7   1.0000     -88.611678     -2411.2463
   8   1.0000     -88.611616     -2411.2447
   9   1.0000     -22.000919      -598.6754
  10   1.0000     -18.860390      -513.2173
  11   1.0000     -18.517232      -503.8795
  12   1.0000     -18.501278      -503.4454
  13   1.0000     -18.500361      -503.4204
  14   1.0000     -10.018880      -272.6276
  15   1.0000     -10.018855      -272.6269
  16   1.0000     -10.018331      -272.6126
  17   1.0000     -10.018286      -272.6114
  18   1.0000     -10.010260      -272.3930
  19   1.0000     -10.009467      -272.3714
  20   1.0000      -9.991718      -271.8885
  21   1.0000      -9.991625      -271.8859
  22   1.0000      -9.990998      -271.8689
  23   1.0000      -9.990912      -271.8665
  24   1.0000      -7.731680      -210.3897
  25   1.0000      -7.731600      -210.3875
  26   1.0000      -7.731387      -210.3817
  27   1.0000      -7.731376      -210.3814
  28   1.0000      -7.666184      -208.6075
  29   1.0000      -7.666171      -208.6071
  30   1.0000      -7.666153      -208.6066
  31   1.0000      -7.666065      -208.6042
  32   1.0000      -5.696949      -155.0219
  33   1.0000      -5.696871      -155.0197
  34   1.0000      -5.696648      -155.0137
  35   1.0000      -5.696643      -155.0135
  36   1.0000      -5.693030      -154.9152
  37   1.0000      -5.692950      -154.9130
  38   1.0000      -5.692739      -154.9073
  39   1.0000      -5.692730      -154.9071
  40   1.0000      -5.686462      -154.7365
  41   1.0000      -5.686377      -154.7342
  42   1.0000      -5.686167      -154.7285
  43   1.0000      -5.686159      -154.7282
  44   1.0000      -5.631050      -153.2287
  45   1.0000      -5.631047      -153.2286
  46   1.0000      -5.631031      -153.2281
  47   1.0000      -5.630952      -153.2260
  48   1.0000      -5.624825      -153.0593
  49   1.0000      -5.624812      -153.0589
  50   1.0000      -5.624800      -153.0586
  51   1.0000      -5.624713      -153.0562
  52   1.0000      -5.624161      -153.0412
  53   1.0000      -5.624160      -153.0412
  54   1.0000      -5.624137      -153.0405
  55   1.0000      -5.624045      -153.0381
  56   1.0000      -2.365157       -64.3592
  57   1.0000      -1.431818       -38.9617
  58   1.0000      -1.377989       -37.4970
  59   1.0000      -1.376893       -37.4672
  60   1.0000      -0.639793       -17.4096
  61   1.0000      -0.639441       -17.4001
  62   1.0000      -0.625543       -17.0219
  63   1.0000      -0.591670       -16.1001
  64   1.0000      -0.591208       -16.0876
  65   1.0000      -0.576976       -15.7003
  66   1.0000      -0.576936       -15.6992
  67   1.0000      -0.492233       -13.3943
  68   1.0000      -0.490476       -13.3465
  69   1.0000      -0.488255       -13.2861
  70   1.0000      -0.487178       -13.2568
  71   1.0000      -0.423749       -11.5308
  72   1.0000      -0.421018       -11.4565
  73   1.0000      -0.410488       -11.1700
  74   1.0000      -0.404735       -11.0134
  75   1.0000      -0.371892       -10.1197
  76   1.0000      -0.369455       -10.0534
  77   1.0000      -0.292815        -7.9679
  78   1.0000      -0.292732        -7.9656
  79   1.0000      -0.270116        -7.3502
  80   1.0000      -0.269312        -7.3283
  81   1.0000      -0.261125        -7.1056
  82   1.0000      -0.256322        -6.9749
  83   1.0000      -0.242849        -6.6083
  84   1.0000      -0.240765        -6.5516
  85   1.0000      -0.196740        -5.3536
  86   1.0000      -0.193927        -5.2770
  87   1.0000      -0.192647        -5.2422
  88   1.0000      -0.190870        -5.1938
  89   1.0000      -0.181254        -4.9322
  90   1.0000      -0.180956        -4.9241
  91   1.0000      -0.177498        -4.8300
  92   1.0000      -0.151097        -4.1116
  93   1.0000      -0.149218        -4.0604
  94   1.0000      -0.146293        -3.9808
  95   1.0000      -0.140975        -3.8361
  96   1.0000      -0.139708        -3.8017
  97   1.0000      -0.096755        -2.6328
  98   1.0000      -0.095546        -2.5999
  99   1.0000      -0.089286        -2.4296
 100   1.0000      -0.084069        -2.2876
 101   1.0000      -0.082091        -2.2338
 102   1.0000      -0.081928        -2.2294
 103   1.0000      -0.071960        -1.9581
 104   1.0000      -0.045433        -1.2363
 105   1.0000      -0.037525        -1.0211
 106   1.0000      -0.037213        -1.0126
 107   1.0000      -0.033604        -0.9144
 108   1.0000      -0.033251        -0.9048
 109   1.0000      -0.011933        -0.3247
 110   1.0000      -0.006278        -0.1708
 111   1.0000      -0.002853        -0.0776
 112   1.0000       0.006581         0.1791
 113   1.0000       0.011911         0.3241
 114   1.0000       0.034698         0.9442
 115   1.0000       0.060004         1.6328
 116   0.0000       0.184941         5.0325
 117   0.0000       0.188836         5.1385
 118   0.0000       0.192575         5.2402
 119   0.0000       0.193285         5.2596
 120   0.0000       0.195137         5.3099

MULLIKEN ATOMIC CHARGES AND SPIN POPULATIONS
--------------------------------------------
   0 V :    0.441050    1.197500
   1 S :   -0.253291   -0.023925
   2 S :   -0.252756   -0.023626
   3 S :   -0.253419   -0.023843
   4 S :   -0.253157   -0.023465
   5 O :   -0.504689   -0.138277
   6 C :   -0.115113    0.008797
   7 C :   -0.113063    0.008768
   8 C :   -0.113847    0.008824
   9 C :   -0.114525    0.008812
  10 S :   -0.040730   -0.000091
  11 S :   -0.040611   -0.000124
  12 S :   -0.041131   -0.000122
  13 S :   -0.041278   -0.000161
  14 C :   -0.331838    0.000220
  15 C :   -0.331235    0.000251
  16 C :   -0.330665    0.000205
  17 C :   -0.331404    0.000271
  18 C :   -0.062468    0.000093
  19 H :    0.140902   -0.000097
  20 H :    0.091571    0.000019
  21 H :    0.043874   -0.000005
  22 H :    0.063423    0.000070
  23 H :    0.091516    0.000021
  24 H :    0.141284   -0.000099
  25 C :   -0.064581    0.000083
  26 H :    0.092187    0.000032
  27 H :    0.141656   -0.000107
  28 H :    0.064671    0.000056
  29 H :    0.043835   -0.000005
  30 H :    0.141705   -0.000103
  31 H :    0.092124    0.000030
Sum of atomic charges         :   -2.0000000

LOEWDIN ATOMIC CHARGES AND SPIN POPULATIONS
-------------------------------------------
   0 V :   -0.248619    1.151269
   1 S :    0.088732   -0.016195
   2 S :    0.089308   -0.015979
   3 S :    0.088570   -0.016116
   4 S :    0.089168   -0.015885
   5 O :   -0.350875   -0.123728
   6 C :   -0.551281    0.010138
   7 C :   -0.550740    0.010081
   8 C :   -0.550718    0.010038
   9 C :   -0.551200    0.010106
  10 S :    0.336855   -0.000997
  11 S :    0.336680   -0.001019
  12 S :    0.336679   -0.001018
  13 S :    0.336609   -0.001037
  14 C :   -0.297919    0.000121
  15 C :   -0.297516    0.000132
  16 C :   -0.298003    0.000115
  17 C :   -0.297632    0.000142
  18 C :   -0.181310   -0.000046
  19 H :    0.063598   -0.000031
  20 H :    0.048472   -0.000001
  21 H :    0.050959    0.000006
  22 H :    0.052341    0.000015
  23 H :    0.048459   -0.000000
  24 H :    0.063742   -0.000031
  25 C :   -0.181474   -0.000049
  26 H :    0.048329    0.000006
  27 H :    0.063746   -0.000031
  28 H :    0.052389    0.000012
  29 H :    0.050565    0.000007
  30 H :    0.063800   -0.000030
  31 H :    0.048288    0.000006

  Mayer bond orders larger than 0.100000
B(  0-V ,  1-S ) :   0.7906 B(  0-V ,  2-S ) :   0.7934 B(  0-V ,  3-S ) :   0.7929
B(  0-V ,  4-S ) :   0.7910 B(  0-V ,  5-O ) :   2.1080 B(  1-S ,  8-C ) :   1.1366
B(  2-S ,  6-C ) :   1.1355 B(  3-S ,  9-C ) :   1.1354 B(  4-S ,  7-C ) :   1.1365
B(  6-C ,  7-C ) :   1.5029 B(  6-C , 10-S ) :   0.9530 B(  7-C , 11-S ) :   0.9526
B(  8-C ,  9-C ) :   1.5052 B(  8-C , 13-S ) :   0.9529 B(  9-C , 12-S ) :   0.9532
B( 10-S , 16-C ) :   1.0236 B( 11-S , 14-C ) :   1.0235 B( 12-S , 15-C ) :   1.0224
B( 13-S , 17-C ) :   1.0227 B( 14-C , 18-C ) :   0.8800 B( 14-C , 23-H ) :   0.9676
B( 14-C , 24-H ) :   0.9747 B( 15-C , 25-C ) :   0.8803 B( 15-C , 30-H ) :   0.9744
B( 15-C , 31-H ) :   0.9678 B( 16-C , 18-C ) :   0.8798 B( 16-C , 19-H ) :   0.9746
B( 16-C , 20-H ) :   0.9675 B( 17-C , 25-C ) :   0.8802 B( 17-C , 26-H ) :   0.9679
B( 17-C , 27-H ) :   0.9744 B( 18-C , 21-H ) :   0.9536 B( 18-C , 22-H ) :   0.9737
B( 25-C , 28-H ) :   0.9737 B( 25-C , 29-H ) :   0.9535

FINAL SINGLE POINT ENERGY     -4592.718321299021

DIPOLE MOMENT
-------------
                                X             Y             Z
Electronic contribution:     -7.81051     -21.99751      13.49189
Nuclear contribution   :      8.68357      24.45437     -14.99408
                        -----------------------------------------
Total Dipole Moment    :      0.87306       2.45686      -1.50220
                        -----------------------------------------
Magnitude (a.u.)       :      3.00915
Magnitude (Debye)      :      7.64865

Rotational constants in cm-1:     0.012577     0.002549     0.002426
Rotational constants in MHz :   377.058479    76.430929    72.729775

                             ****ORCA TERMINATED NORMALLY****
TOTAL RUN TIME: 0 days 0 hours 42 minutes 52 seconds 919 msec
