                         Program Version 5.0.4 -  RELEASE  -
|  1> ! nofrozencore ReducedPop printbasis
|  2> ! B3LYP TZVP
|  3>
|  4> %basis
|  5> newgto V "CP(PPP)" end
|  6> end
|  7>
|  8> %pal
|  9> nprocs 4
| 10> end
| 11>
| 12> % sym SymThresh 1e-2 end
| 13> * xyz -2 2
| 14> V -1.039360686273844 -0.39896129326299923 0.06844335444204015
| 15> S -0.11296976972107105 -1.103979550863315 -2.088061356487831
| 16> S 0.47089683892629897 -2.0532357165679054 1.058473226955268
| 17> S -1.1435961414220661 1.7962149589778498 -1.0128800311521415
| 18> S -0.588378714537439 0.8352710386613369 2.137441892050842
| 19> O -2.526936907817764 -0.9715572189151448 0.160683675721172
| 20> C 0.576763198526365 -1.576255707672472 2.7577989968990835
| 21> C 0.13635747203424503 -0.3713702258525875 3.2071470129864066
| 22> C -0.5185309179918354 0.22526229602305184 -3.1806189937081375
| 23> C -0.9482663813550783 1.4346470395234945 -2.732671552178054
| 24> S 1.3412024984586133 -2.8000896618678275 3.840746984933437
| 25> S 0.2750570718352147 0.1337545511455044 4.933678279954856
| 26> S -1.3275149859188842 2.8060335481365835 -3.8420012215533976
| 27> S -0.28252996355199944 -0.1367702948310514 -4.932691778352073
| 28> C 2.099206594471531 0.29894366196805156 5.171968541326055
| 29> C 0.30361657783434653 3.2616387579051196 -4.566321409949185
| 30> C 2.9325362449769083 -1.99463152021149 4.3198516993462315
| 31> C 1.1580345798383682 0.9494410926255769 -5.350240271077228
| 32> C 2.8601518791382228 -0.992168892207917 5.470978489504597
| 33> H 3.3423498362940234 -1.5308067102880492 3.4200748852082747
| 34> H 3.591088491399791 -2.823127088253278 4.599160489885468
| 35> H 3.8918709195780514 -0.7198009163228561 5.746751947961341
| 36> H 2.414552065258132 -1.478919388531118 6.345236331253898
| 37> H 2.2089020591669883 0.9895826111522271 6.013950166234833
| 38> H 2.4963724538590695 0.7916365526807383 4.281825731993119
| 39> C 0.8079678731090277 2.399780458031628 -5.714227100803589
| 40> H 1.667780815473048 0.3739582298371453 -6.436562665926521
| 41> H 1.602533765585237 0.9054620573543267 -4.881029568262404
| 42> H 0.05174457250596337 2.428962518917235 -6.508883958996151
| 43> H 1.7174294822599676 2.8707351220782744 -6.120097930445598
| 44> H 1.2975999784012384 3.1988623660376456 -3.407925530896786
| 45> H 0.24561792432862536 4.091439851928131 -4.796345156659683
| 46> *
| 47>
| 48> % eprnmr
| 49> gtensor true
| 50> Nuclei = all H {aiso,adip,aorb,fgrad,rho}
| 51> Nuclei = all V {aiso,adip,aorb,fgrad,rho}
| 52> end
| 53>
| 54>                          ****END OF INPUT****

CARTESIAN COORDINATES (ANGSTROEM)
---------------------------------
  V     -1.040448   -0.399414    0.068590
  S     -0.114057   -1.104432   -2.087914
  S      0.469810   -2.053688    1.058620
  S     -1.144683    1.795762   -1.012733
  S     -0.589466    0.834819    2.137589
  O     -2.528024   -0.972010    0.160831
  C      0.575676   -1.576708    2.757946
  C      0.135270   -0.371823    3.207294
  C     -0.519618    0.224810   -3.180472
  C     -0.949354    1.434195   -2.732524
  S      1.340115   -2.800542    3.840894
  S      0.273970    0.133302    4.933825
  S     -1.328602    2.805581   -3.841854
  S     -0.283617   -0.137223   -4.932545
  C      2.098119    0.298491    5.172116
  C      0.302529    3.261186   -4.566174
  C      2.931449   -1.995084    4.319999
  C      1.156947    0.948989   -5.350093
  C      2.859065   -0.992621    5.471126
  H      3.341263   -1.531259    3.420222
  H      3.590001   -2.823580    4.599308
  H      3.890784   -0.720253    5.746899
  H      2.413465   -1.479372    6.345383
  H      2.207815    0.989130    6.014097
  H      2.495285    0.791184    4.281973
  C      0.806881    2.399328   -5.714080
  H      1.666694    0.373506   -6.436416
  H      1.601447    0.905010   -4.880882
  H      0.050657    2.428510   -6.508737
  H      1.716342    2.870283   -6.119951
  H      1.296513    3.198410   -3.407778
  H      0.244531    4.090987   -4.796198

 Total Charge           Charge          ....   -2
 Multiplicity           Mult            ....    2
 Number of Electrons    NEL             ....  233
 Basis Dimension        Dim             ....  517

ORBITAL ENERGIES
----------------
                 SPIN UP ORBITALS
  NO   OCC          E(Eh)            E(eV)
   0   1.0000    -196.641015     -5350.8741
   1   1.0000     -88.681915     -2413.1576
   2   1.0000     -88.679085     -2413.0806
   3   1.0000     -88.676837     -2413.0194
   4   1.0000     -88.676753     -2413.0171
   5   1.0000     -88.613910     -2411.3071
   6   1.0000     -88.612741     -2411.2753
   7   1.0000     -88.612533     -2411.2696
   8   1.0000     -88.612503     -2411.2688
   9   1.0000     -22.016842      -599.1087
  10   1.0000     -18.858046      -513.1535
  11   1.0000     -18.523665      -504.0545
  12   1.0000     -18.517891      -503.8974
  13   1.0000     -18.517857      -503.8965
  14   1.0000     -10.024599      -272.7832
  15   1.0000     -10.015617      -272.5388
  16   1.0000     -10.015592      -272.5381
  17   1.0000     -10.009984      -272.3855
  18   1.0000     -10.009711      -272.3781
  19   1.0000     -10.004872      -272.2464
  20   1.0000      -9.994240      -271.9571
  21   1.0000      -9.993191      -271.9285
  22   1.0000      -9.992257      -271.9031
  23   1.0000      -9.991533      -271.8834
  24   1.0000      -7.735371      -210.4902
  25   1.0000      -7.732506      -210.4122
  26   1.0000      -7.730482      -210.3571
  27   1.0000      -7.730415      -210.3553
  28   1.0000      -7.668313      -208.6654
  29   1.0000      -7.667199      -208.6351
  30   1.0000      -7.666948      -208.6283
  31   1.0000      -7.666919      -208.6275
  32   1.0000      -5.700630      -155.1220
  33   1.0000      -5.697804      -155.0451
  34   1.0000      -5.696641      -155.0135
  35   1.0000      -5.695732      -154.9888
  36   1.0000      -5.695662      -154.9868
  37   1.0000      -5.693948      -154.9402
  38   1.0000      -5.691832      -154.8826
  39   1.0000      -5.691762      -154.8807
  40   1.0000      -5.690253      -154.8397
  41   1.0000      -5.687130      -154.7547
  42   1.0000      -5.685229      -154.7029
  43   1.0000      -5.685165      -154.7012
  44   1.0000      -5.633213      -153.2875
  45   1.0000      -5.632037      -153.2555
  46   1.0000      -5.631800      -153.2491
  47   1.0000      -5.631763      -153.2481
  48   1.0000      -5.626721      -153.1109
  49   1.0000      -5.626257      -153.0982
  50   1.0000      -5.625636      -153.0813
  51   1.0000      -5.625390      -153.0746
  52   1.0000      -5.625372      -153.0741
  53   1.0000      -5.625173      -153.0687
  54   1.0000      -5.624933      -153.0622
  55   1.0000      -5.624908      -153.0615
  56   1.0000      -2.410526       -65.5937
  57   1.0000      -1.451874       -39.5075
  58   1.0000      -1.440315       -39.1930
  59   1.0000      -1.439224       -39.1633
  60   1.0000      -0.658142       -17.9090
  61   1.0000      -0.644027       -17.5249
  62   1.0000      -0.619083       -16.8461
  63   1.0000      -0.600548       -16.3417
  64   1.0000      -0.594341       -16.1728
  65   1.0000      -0.593971       -16.1628
  66   1.0000      -0.576049       -15.6751
  67   1.0000      -0.506466       -13.7816
  68   1.0000      -0.493617       -13.4320
  69   1.0000      -0.490659       -13.3515
  70   1.0000      -0.487389       -13.2625
  71   1.0000      -0.444260       -12.0889
  72   1.0000      -0.427600       -11.6356
  73   1.0000      -0.421767       -11.4769
  74   1.0000      -0.410572       -11.1722
  75   1.0000      -0.388268       -10.5653
  76   1.0000      -0.374863       -10.2005
  77   1.0000      -0.295390        -8.0380
  78   1.0000      -0.293057        -7.9745
  79   1.0000      -0.286137        -7.7862
  80   1.0000      -0.277902        -7.5621
  81   1.0000      -0.260458        -7.0874
  82   1.0000      -0.255820        -6.9612
  83   1.0000      -0.245936        -6.6923
  84   1.0000      -0.240662        -6.5487
  85   1.0000      -0.201594        -5.4857
  86   1.0000      -0.194617        -5.2958
  87   1.0000      -0.192407        -5.2357
  88   1.0000      -0.186070        -5.0632
  89   1.0000      -0.184746        -5.0272
  90   1.0000      -0.178004        -4.8437
  91   1.0000      -0.175068        -4.7638
  92   1.0000      -0.156923        -4.2701
  93   1.0000      -0.151627        -4.1260
  94   1.0000      -0.146613        -3.9896
  95   1.0000      -0.143091        -3.8937
  96   1.0000      -0.126513        -3.4426
  97   1.0000      -0.098581        -2.6825
  98   1.0000      -0.096742        -2.6325
  99   1.0000      -0.090775        -2.4701
 100   1.0000      -0.084626        -2.3028
 101   1.0000      -0.082462        -2.2439
 102   1.0000      -0.081080        -2.2063
 103   1.0000      -0.070802        -1.9266
 104   1.0000      -0.051083        -1.3900
 105   1.0000      -0.039499        -1.0748
 106   1.0000      -0.039100        -1.0640
 107   1.0000      -0.036826        -1.0021
 108   1.0000      -0.033059        -0.8996
 109   1.0000      -0.014241        -0.3875
 110   1.0000      -0.005441        -0.1481
 111   1.0000      -0.004454        -0.1212
 112   1.0000       0.005370         0.1461
 113   1.0000       0.009545         0.2597
 114   1.0000       0.015342         0.4175
 115   1.0000       0.032704         0.8899
 116   1.0000       0.058929         1.6035
 117   0.0000       0.175955         4.7880
 118   0.0000       0.183831         5.0023
 119   0.0000       0.191389         5.2080
 120   0.0000       0.196400         5.3443
 121   0.0000       0.202438         5.5086

                 SPIN DOWN ORBITALS
  NO   OCC          E(Eh)            E(eV)
   0   1.0000    -196.641156     -5350.8779
   1   1.0000     -88.681927     -2413.1579
   2   1.0000     -88.679099     -2413.0810
   3   1.0000     -88.676850     -2413.0198
   4   1.0000     -88.676767     -2413.0175
   5   1.0000     -88.614067     -2411.3113
   6   1.0000     -88.612902     -2411.2796
   7   1.0000     -88.612694     -2411.2740
   8   1.0000     -88.612663     -2411.2731
   9   1.0000     -22.002170      -598.7095
  10   1.0000     -18.861634      -513.2512
  11   1.0000     -18.518531      -503.9148
  12   1.0000     -18.502404      -503.4760
  13   1.0000     -18.501715      -503.4572
  14   1.0000     -10.024595      -272.7831
  15   1.0000     -10.015613      -272.5387
  16   1.0000     -10.015589      -272.5380
  17   1.0000     -10.009980      -272.3854
  18   1.0000     -10.009710      -272.3781
  19   1.0000     -10.004871      -272.2464
  20   1.0000      -9.993985      -271.9501
  21   1.0000      -9.992938      -271.9217
  22   1.0000      -9.992002      -271.8962
  23   1.0000      -9.991280      -271.8766
  24   1.0000      -7.735385      -210.4905
  25   1.0000      -7.732520      -210.4126
  26   1.0000      -7.730496      -210.3575
  27   1.0000      -7.730429      -210.3557
  28   1.0000      -7.668458      -208.6694
  29   1.0000      -7.667349      -208.6392
  30   1.0000      -7.667098      -208.6323
  31   1.0000      -7.667068      -208.6315
  32   1.0000      -5.700646      -155.1225
  33   1.0000      -5.697821      -155.0456
  34   1.0000      -5.696661      -155.0140
  35   1.0000      -5.695749      -154.9892
  36   1.0000      -5.695679      -154.9873
  37   1.0000      -5.693968      -154.9408
  38   1.0000      -5.691852      -154.8832
  39   1.0000      -5.691782      -154.8813
  40   1.0000      -5.690267      -154.8400
  41   1.0000      -5.687147      -154.7551
  42   1.0000      -5.685246      -154.7034
  43   1.0000      -5.685182      -154.7017
  44   1.0000      -5.633382      -153.2921
  45   1.0000      -5.632209      -153.2602
  46   1.0000      -5.631973      -153.2538
  47   1.0000      -5.631935      -153.2527
  48   1.0000      -5.627101      -153.1212
  49   1.0000      -5.626391      -153.1019
  50   1.0000      -5.626028      -153.0920
  51   1.0000      -5.625784      -153.0854
  52   1.0000      -5.625764      -153.0848
  53   1.0000      -5.625309      -153.0724
  54   1.0000      -5.625069      -153.0659
  55   1.0000      -5.625043      -153.0652
  56   1.0000      -2.366331       -64.3911
  57   1.0000      -1.433031       -38.9947
  58   1.0000      -1.378900       -37.5218
  59   1.0000      -1.378237       -37.5037
  60   1.0000      -0.658113       -17.9082
  61   1.0000      -0.643978       -17.5235
  62   1.0000      -0.626765       -17.0551
  63   1.0000      -0.600380       -16.3372
  64   1.0000      -0.594286       -16.1714
  65   1.0000      -0.593779       -16.1576
  66   1.0000      -0.576044       -15.6750
  67   1.0000      -0.506432       -13.7807
  68   1.0000      -0.493638       -13.4326
  69   1.0000      -0.490693       -13.3524
  70   1.0000      -0.487403       -13.2629
  71   1.0000      -0.444405       -12.0929
  72   1.0000      -0.427781       -11.6405
  73   1.0000      -0.422057       -11.4847
  74   1.0000      -0.410622       -11.1736
  75   1.0000      -0.388280       -10.5656
  76   1.0000      -0.374868       -10.2007
  77   1.0000      -0.295364        -8.0373
  78   1.0000      -0.293040        -7.9740
  79   1.0000      -0.286117        -7.7856
  80   1.0000      -0.277884        -7.5616
  81   1.0000      -0.260262        -7.0821
  82   1.0000      -0.255783        -6.9602
  83   1.0000      -0.245852        -6.6900
  84   1.0000      -0.240579        -6.5465
  85   1.0000      -0.201512        -5.4834
  86   1.0000      -0.194223        -5.2851
  87   1.0000      -0.192371        -5.2347
  88   1.0000      -0.185234        -5.0405
  89   1.0000      -0.184355        -5.0166
  90   1.0000      -0.177296        -4.8245
  91   1.0000      -0.174655        -4.7526
  92   1.0000      -0.156689        -4.2637
  93   1.0000      -0.150959        -4.1078
  94   1.0000      -0.146375        -3.9831
  95   1.0000      -0.142895        -3.8884
  96   1.0000      -0.126303        -3.4369
  97   1.0000      -0.097222        -2.6455
  98   1.0000      -0.096111        -2.6153
  99   1.0000      -0.090871        -2.4727
 100   1.0000      -0.084629        -2.3029
 101   1.0000      -0.082976        -2.2579
 102   1.0000      -0.082005        -2.2315
 103   1.0000      -0.072128        -1.9627
 104   1.0000      -0.046982        -1.2784
 105   1.0000      -0.039638        -1.0786
 106   1.0000      -0.038308        -1.0424
 107   1.0000      -0.035848        -0.9755
 108   1.0000      -0.033018        -0.8985
 109   1.0000      -0.013336        -0.3629
 110   1.0000      -0.006608        -0.1798
 111   1.0000      -0.003582        -0.0975
 112   1.0000       0.006182         0.1682
 113   1.0000       0.010451         0.2844
 114   1.0000       0.032960         0.8969
 115   1.0000       0.058135         1.5819
 116   0.0000       0.176009         4.7895
 117   0.0000       0.183947         5.0055
 118   0.0000       0.184973         5.0334
 119   0.0000       0.192390         5.2352
 120   0.0000       0.196595         5.3496

MULLIKEN ATOMIC CHARGES AND SPIN POPULATIONS
--------------------------------------------
   0 V :    0.446753    1.199433
   1 S :   -0.250332   -0.024309
   2 S :   -0.252959   -0.024327
   3 S :   -0.249323   -0.023536
   4 S :   -0.253918   -0.024187
   5 O :   -0.505776   -0.139027
   6 C :   -0.117139    0.008875
   7 C :   -0.115220    0.008903
   8 C :   -0.120115    0.008800
   9 C :   -0.100676    0.008953
  10 S :   -0.044682   -0.000169
  11 S :   -0.044665   -0.000201
  12 S :   -0.033103   -0.000061
  13 S :   -0.051688   -0.000276
  14 C :   -0.338541    0.000286
  15 C :   -0.392045    0.000232
  16 C :   -0.337683    0.000267
  17 C :   -0.370597    0.000568
  18 C :   -0.084299    0.000137
  19 H :    0.147125   -0.000101
  20 H :    0.101922    0.000021
  21 H :    0.044779    0.000039
  22 H :    0.078513    0.000017
  23 H :    0.102019    0.000022
  24 H :    0.147438   -0.000103
  25 C :   -0.085090    0.000152
  26 H :    0.014695   -0.000000
  27 H :    0.284380   -0.000230
  28 H :    0.081460    0.000015
  29 H :    0.047919    0.000035
  30 H :    0.053775   -0.000253
  31 H :    0.197071    0.000024
Sum of atomic charges         :   -2.0000000

LOEWDIN ATOMIC CHARGES AND SPIN POPULATIONS
-------------------------------------------
   0 V :   -0.242365    1.153413
   1 S :    0.089955   -0.016465
   2 S :    0.088724   -0.016507
   3 S :    0.092814   -0.015866
   4 S :    0.088092   -0.016385
   5 O :   -0.350628   -0.124449
   6 C :   -0.553138    0.009990
   7 C :   -0.552594    0.009970
   8 C :   -0.549832    0.009924
   9 C :   -0.549943    0.009999
  10 S :    0.336951   -0.001028
  11 S :    0.336778   -0.001046
  12 S :    0.349497   -0.000947
  13 S :    0.346465   -0.001060
  14 C :   -0.293561    0.000165
  15 C :   -0.255300    0.000161
  16 C :   -0.293615    0.000156
  17 C :   -0.135501    0.000184
  18 C :   -0.184811   -0.000036
  19 H :    0.065977   -0.000027
  20 H :    0.047355    0.000004
  21 H :    0.046884    0.000017
  22 H :    0.053405    0.000013
  23 H :    0.047359    0.000005
  24 H :    0.066140   -0.000027
  25 C :   -0.165480   -0.000036
  26 H :    0.059398   -0.000002
  27 H :   -0.139529    0.000012
  28 H :    0.057475    0.000014
  29 H :    0.049659    0.000017
  30 H :    0.064969   -0.000168
  31 H :   -0.021601    0.000006

  Mayer bond orders larger than 0.100000
B(  0-V ,  1-S ) :   0.7894 B(  0-V ,  2-S ) :   0.7921 B(  0-V ,  3-S ) :   0.7854
B(  0-V ,  4-S ) :   0.7893 B(  0-V ,  5-O ) :   2.1083 B(  1-S ,  8-C ) :   1.1385
B(  2-S ,  6-C ) :   1.1368 B(  3-S ,  9-C ) :   1.1384 B(  4-S ,  7-C ) :   1.1375
B(  6-C ,  7-C ) :   1.5177 B(  6-C , 10-S ) :   0.9541 B(  7-C , 11-S ) :   0.9539
B(  8-C ,  9-C ) :   1.5156 B(  8-C , 13-S ) :   0.9557 B(  9-C , 12-S ) :   0.9449
B( 10-S , 16-C ) :   1.0048 B( 11-S , 14-C ) :   1.0046 B( 12-S , 15-C ) :   1.0113
B( 13-S , 17-C ) :   0.9854 B( 14-C , 18-C ) :   0.8783 B( 14-C , 23-H ) :   0.9701
B( 14-C , 24-H ) :   0.9752 B( 15-C , 25-C ) :   0.8824 B( 15-C , 30-H ) :   0.9425
B( 15-C , 31-H ) :   0.9543 B( 16-C , 18-C ) :   0.8780 B( 16-C , 19-H ) :   0.9752
B( 16-C , 20-H ) :   0.9701 B( 17-C , 25-C ) :   0.8766 B( 17-C , 26-H ) :   0.9396
B( 17-C , 27-H ) :   0.9879 B( 18-C , 21-H ) :   0.9527 B( 18-C , 22-H ) :   0.9738
B( 25-C , 28-H ) :   0.9639 B( 25-C , 29-H ) :   0.9532

FINAL SINGLE POINT ENERGY     -4592.271471287469

DIPOLE MOMENT
-------------
                                X             Y             Z
Electronic contribution:    -25.17359      -9.27639       1.80824
Nuclear contribution   :     27.81222      10.37799      -1.95191
                        -----------------------------------------
Total Dipole Moment    :      2.63863       1.10160      -0.14367
                        -----------------------------------------
Magnitude (a.u.)       :      2.86296
Magnitude (Debye)      :      7.27707

Rotational constants in cm-1:     0.012770     0.002548     0.002431
Rotational constants in MHz :   382.834750    76.394884    72.880438

                             ****ORCA TERMINATED NORMALLY****
TOTAL RUN TIME: 0 days 0 hours 43 minutes 20 seconds 143 msec
