                         Program Version 5.0.4 -  RELEASE  -
|  1> ! nofrozencore ReducedPop printbasis
|  2> ! B3LYP TZVP
|  3>
|  4> %basis
|  5> newgto V "CP(PPP)" end
|  6> end
|  7>
|  8> %pal
|  9> nprocs 8
| 10> end
| 11>
| 12> % sym SymThresh 1e-2 end
| 13> * xyz -2 2
| 14> V -0.025270611937532623 0.22127087319420777 1.0929428552514424
| 15> S 1.7539290768802112 -1.4193894810216159 0.7075226768276185
| 16> S 1.4768827702266203 1.8373420518405648 0.030124310150553526
| 17> S -1.4946420838053454 -1.6935600909296429 0.6767840763754677
| 18> S -1.772583524567363 1.5714909019361516 0.029365095185370258
| 19> O -0.05773504663103109 0.5334684971637084 2.6584273844710156
| 20> C 0.4140184469899586 3.1723385221919576 -0.43309561019937787
| 21> C -0.9406660148097444 3.0607979503284346 -0.43467260601653446
| 22> C 0.9302033937042554 -2.978558924624249 0.8357645048524861
| 23> C -0.42434850745969555 -3.092993482079146 0.8237941474965987
| 24> S 1.2681782695376531 4.6813771398985535 -0.9312500285813227
| 25> S -2.0279075836013334 4.408733116624604 -0.9408831680504813
| 26> S -1.268321544087194 -4.684244738391279 0.9161132818936104
| 27> S 2.0277212177325494 -4.407292386949674 0.9493067089785429
| 28> C -1.6717606248622525 4.5723816550548975 -2.7459256457978976
| 29> C -0.8025498959523178 -5.468392306727862 -0.6926347603661293
| 30> C 0.9039758458869591 4.788128330429798 -2.738571269748792
| 31> C 1.775805592476441 -5.276576719132582 -0.6570534479427307
| 32> C -0.44532875933923055 5.400989767241372 -3.1188892216648805
| 33> H 1.004267106352644 3.780879002087325 -3.1486192398618535
| 34> H 1.7139145870216412 5.399319785592124 -3.1490702759141245
| 35> H -0.4478861098604535 5.545492703289022 -4.211515073611429
| 36> H -0.519849639791448 6.395518455752635 -2.6658053007984535
| 37> H -2.5664224733439087 5.042383730601702 -3.166335872141266
| 38> H -1.6041120199764982 3.560807947534059 -3.151898700523892
| 39> C 0.4404402307568656 -6.191358434497146 -0.7388029583034265
| 40> H 2.748576314982832 -5.774331614260185 -0.7869904765946999
| 41> H 1.6277188244646188 -4.548193748315417 -1.468459441493046
| 42> H 0.9774773380424657 -6.888322166087021 0.0741482556815393
| 43> H 0.8108197662125081 -6.723770204709515 -1.6838551910228632
| 44> H -0.9945096678740719 -4.6778480176872925 -1.4300343104223299
| 45> H -1.5179661090981693 -6.279754880050692 -0.8969018523511211
| 46> *
| 47>
| 48> % eprnmr
| 49> gtensor true
| 50> Nuclei = all H {aiso,adip,aorb,fgrad,rho}
| 51> Nuclei = all V {aiso,adip,aorb,fgrad,rho}
| 52> end
| 53>
| 54>                          ****END OF INPUT****

CARTESIAN COORDINATES (ANGSTROEM)
---------------------------------
  V     -0.025298    0.221586    1.094087
  S      1.753902   -1.419075    0.708667
  S      1.476856    1.837657    0.031268
  S     -1.494669   -1.693245    0.677928
  S     -1.772611    1.571806    0.030509
  O     -0.057762    0.533783    2.659571
  C      0.413991    3.172653   -0.431952
  C     -0.940693    3.061113   -0.433529
  C      0.930176   -2.978244    0.836908
  C     -0.424376   -3.092679    0.824938
  S      1.268151    4.681692   -0.930106
  S     -2.027935    4.409048   -0.939739
  S     -1.268349   -4.683930    0.917257
  S      2.027694   -4.406978    0.950451
  C     -1.671788    4.572697   -2.744782
  C     -0.802577   -5.468077   -0.691491
  C      0.903949    4.788443   -2.737427
  C      1.775778   -5.276262   -0.655910
  C     -0.445356    5.401305   -3.117745
  H      1.004240    3.781194   -3.147475
  H      1.713887    5.399635   -3.147926
  H     -0.447913    5.545808   -4.210371
  H     -0.519877    6.395833   -2.664661
  H     -2.566450    5.042699   -3.165192
  H     -1.604139    3.561123   -3.150755
  C      0.440413   -6.191044   -0.737659
  H      2.748549   -5.774017   -0.785847
  H      1.627692   -4.547879   -1.467316
  H      0.977450   -6.888007    0.075292
  H      0.810793   -6.723455   -1.682711
  H     -0.994537   -4.677533   -1.428890
  H     -1.517993   -6.279440   -0.895758

 Total Charge           Charge          ....   -2
 Multiplicity           Mult            ....    2
 Number of Electrons    NEL             ....  233
 Basis Dimension        Dim             ....  517

ORBITAL ENERGIES
----------------
                 SPIN UP ORBITALS
  NO   OCC          E(Eh)            E(eV)
   0   1.0000    -196.640705     -5350.8656
   1   1.0000     -88.680286     -2413.1133
   2   1.0000     -88.676938     -2413.0221
   3   1.0000     -88.676729     -2413.0165
   4   1.0000     -88.675624     -2412.9864
   5   1.0000     -88.613009     -2411.2826
   6   1.0000     -88.612651     -2411.2728
   7   1.0000     -88.612454     -2411.2675
   8   1.0000     -88.612426     -2411.2667
   9   1.0000     -22.016515      -599.0998
  10   1.0000     -18.857754      -513.1456
  11   1.0000     -18.523338      -504.0456
  12   1.0000     -18.517564      -503.8885
  13   1.0000     -18.517527      -503.8875
  14   1.0000     -10.021405      -272.6963
  15   1.0000     -10.019018      -272.6313
  16   1.0000     -10.017165      -272.5809
  17   1.0000     -10.015793      -272.5436
  18   1.0000     -10.015613      -272.5387
  19   1.0000     -10.004977      -272.2493
  20   1.0000      -9.992892      -271.9204
  21   1.0000      -9.992250      -271.9029
  22   1.0000      -9.992162      -271.9005
  23   1.0000      -9.991525      -271.8832
  24   1.0000      -7.733798      -210.4473
  25   1.0000      -7.730578      -210.3597
  26   1.0000      -7.730395      -210.3547
  27   1.0000      -7.729393      -210.3275
  28   1.0000      -7.667463      -208.6423
  29   1.0000      -7.667084      -208.6320
  30   1.0000      -7.666870      -208.6261
  31   1.0000      -7.666853      -208.6257
  32   1.0000      -5.699174      -155.0824
  33   1.0000      -5.695826      -154.9913
  34   1.0000      -5.695645      -154.9864
  35   1.0000      -5.695157      -154.9731
  36   1.0000      -5.694555      -154.9567
  37   1.0000      -5.691931      -154.8853
  38   1.0000      -5.691738      -154.8801
  39   1.0000      -5.690697      -154.8517
  40   1.0000      -5.688402      -154.7893
  41   1.0000      -5.685327      -154.7056
  42   1.0000      -5.685144      -154.7006
  43   1.0000      -5.684265      -154.6767
  44   1.0000      -5.632296      -153.2626
  45   1.0000      -5.631921      -153.2524
  46   1.0000      -5.631710      -153.2466
  47   1.0000      -5.631708      -153.2466
  48   1.0000      -5.625892      -153.0883
  49   1.0000      -5.625508      -153.0779
  50   1.0000      -5.625458      -153.0765
  51   1.0000      -5.625312      -153.0725
  52   1.0000      -5.625295      -153.0720
  53   1.0000      -5.625072      -153.0660
  54   1.0000      -5.624858      -153.0602
  55   1.0000      -5.624845      -153.0598
  56   1.0000      -2.410209       -65.5851
  57   1.0000      -1.451570       -39.4992
  58   1.0000      -1.439992       -39.1842
  59   1.0000      -1.438910       -39.1547
  60   1.0000      -0.647117       -17.6089
  61   1.0000      -0.644102       -17.5269
  62   1.0000      -0.618788       -16.8381
  63   1.0000      -0.595771       -16.2118
  64   1.0000      -0.594012       -16.1639
  65   1.0000      -0.577493       -15.7144
  66   1.0000      -0.576112       -15.6768
  67   1.0000      -0.492264       -13.3952
  68   1.0000      -0.490725       -13.3533
  69   1.0000      -0.488073       -13.2811
  70   1.0000      -0.487157       -13.2562
  71   1.0000      -0.425651       -11.5826
  72   1.0000      -0.421495       -11.4695
  73   1.0000      -0.411917       -11.2088
  74   1.0000      -0.405435       -11.0325
  75   1.0000      -0.375577       -10.2200
  76   1.0000      -0.370507       -10.0820
  77   1.0000      -0.293157        -7.9772
  78   1.0000      -0.292034        -7.9466
  79   1.0000      -0.278057        -7.5663
  80   1.0000      -0.277819        -7.5598
  81   1.0000      -0.262315        -7.1380
  82   1.0000      -0.260726        -7.0947
  83   1.0000      -0.255103        -6.9417
  84   1.0000      -0.241054        -6.5594
  85   1.0000      -0.204027        -5.5519
  86   1.0000      -0.194615        -5.2957
  87   1.0000      -0.192460        -5.2371
  88   1.0000      -0.185931        -5.0594
  89   1.0000      -0.184780        -5.0281
  90   1.0000      -0.180268        -4.9053
  91   1.0000      -0.156735        -4.2650
  92   1.0000      -0.151302        -4.1171
  93   1.0000      -0.150296        -4.0898
  94   1.0000      -0.144353        -3.9280
  95   1.0000      -0.143127        -3.8947
  96   1.0000      -0.124724        -3.3939
  97   1.0000      -0.097827        -2.6620
  98   1.0000      -0.096964        -2.6385
  99   1.0000      -0.089697        -2.4408
 100   1.0000      -0.083519        -2.2727
 101   1.0000      -0.082026        -2.2321
 102   1.0000      -0.080775        -2.1980
 103   1.0000      -0.070126        -1.9082
 104   1.0000      -0.050741        -1.3807
 105   1.0000      -0.039509        -1.0751
 106   1.0000      -0.038141        -1.0379
 107   1.0000      -0.036247        -0.9863
 108   1.0000      -0.032084        -0.8730
 109   1.0000      -0.013663        -0.3718
 110   1.0000      -0.004928        -0.1341
 111   1.0000      -0.003792        -0.1032
 112   1.0000       0.005553         0.1511
 113   1.0000       0.010059         0.2737
 114   1.0000       0.015669         0.4264
 115   1.0000       0.032954         0.8967
 116   1.0000       0.059133         1.6091
 117   0.0000       0.184546         5.0217
 118   0.0000       0.191311         5.2058
 119   0.0000       0.196221         5.3394
 120   0.0000       0.197290         5.3685
 121   0.0000       0.210864         5.7379

                 SPIN DOWN ORBITALS
  NO   OCC          E(Eh)            E(eV)
   0   1.0000    -196.640846     -5350.8695
   1   1.0000     -88.680299     -2413.1136
   2   1.0000     -88.676951     -2413.0225
   3   1.0000     -88.676743     -2413.0168
   4   1.0000     -88.675637     -2412.9867
   5   1.0000     -88.613167     -2411.2869
   6   1.0000     -88.612812     -2411.2772
   7   1.0000     -88.612614     -2411.2718
   8   1.0000     -88.612585     -2411.2710
   9   1.0000     -22.001844      -598.7006
  10   1.0000     -18.861342      -513.2432
  11   1.0000     -18.518205      -503.9060
  12   1.0000     -18.502070      -503.4669
  13   1.0000     -18.501393      -503.4485
  14   1.0000     -10.021401      -272.6962
  15   1.0000     -10.019018      -272.6313
  16   1.0000     -10.017161      -272.5808
  17   1.0000     -10.015790      -272.5435
  18   1.0000     -10.015610      -272.5386
  19   1.0000     -10.004977      -272.2493
  20   1.0000      -9.992637      -271.9135
  21   1.0000      -9.991995      -271.8960
  22   1.0000      -9.991909      -271.8937
  23   1.0000      -9.991272      -271.8763
  24   1.0000      -7.733812      -210.4477
  25   1.0000      -7.730592      -210.3601
  26   1.0000      -7.730408      -210.3551
  27   1.0000      -7.729406      -210.3278
  28   1.0000      -7.667610      -208.6463
  29   1.0000      -7.667233      -208.6360
  30   1.0000      -7.667018      -208.6302
  31   1.0000      -7.667002      -208.6297
  32   1.0000      -5.699190      -155.0828
  33   1.0000      -5.695842      -154.9918
  34   1.0000      -5.695662      -154.9868
  35   1.0000      -5.695179      -154.9737
  36   1.0000      -5.694572      -154.9572
  37   1.0000      -5.691951      -154.8859
  38   1.0000      -5.691758      -154.8806
  39   1.0000      -5.690716      -154.8523
  40   1.0000      -5.688419      -154.7897
  41   1.0000      -5.685344      -154.7061
  42   1.0000      -5.685161      -154.7011
  43   1.0000      -5.684280      -154.6771
  44   1.0000      -5.632466      -153.2672
  45   1.0000      -5.632093      -153.2570
  46   1.0000      -5.631882      -153.2513
  47   1.0000      -5.631880      -153.2512
  48   1.0000      -5.626281      -153.0989
  49   1.0000      -5.625901      -153.0886
  50   1.0000      -5.625703      -153.0832
  51   1.0000      -5.625686      -153.0827
  52   1.0000      -5.625591      -153.0801
  53   1.0000      -5.625207      -153.0697
  54   1.0000      -5.624995      -153.0639
  55   1.0000      -5.624980      -153.0635
  56   1.0000      -2.366020       -64.3827
  57   1.0000      -1.432730       -38.9866
  58   1.0000      -1.378574       -37.5129
  59   1.0000      -1.377931       -37.4954
  60   1.0000      -0.647072       -17.6077
  61   1.0000      -0.644052       -17.5256
  62   1.0000      -0.626474       -17.0472
  63   1.0000      -0.595577       -16.2065
  64   1.0000      -0.593811       -16.1584
  65   1.0000      -0.577483       -15.7141
  66   1.0000      -0.576107       -15.6767
  67   1.0000      -0.492280       -13.3956
  68   1.0000      -0.490749       -13.3540
  69   1.0000      -0.488092       -13.2817
  70   1.0000      -0.487176       -13.2567
  71   1.0000      -0.425904       -11.5894
  72   1.0000      -0.421795       -11.4776
  73   1.0000      -0.411934       -11.2093
  74   1.0000      -0.405529       -11.0350
  75   1.0000      -0.375551       -10.2193
  76   1.0000      -0.370511       -10.0821
  77   1.0000      -0.293138        -7.9767
  78   1.0000      -0.292021        -7.9463
  79   1.0000      -0.278034        -7.5657
  80   1.0000      -0.277806        -7.5595
  81   1.0000      -0.262296        -7.1374
  82   1.0000      -0.260512        -7.0889
  83   1.0000      -0.255032        -6.9398
  84   1.0000      -0.240965        -6.5570
  85   1.0000      -0.203943        -5.5496
  86   1.0000      -0.194257        -5.2860
  87   1.0000      -0.192420        -5.2360
  88   1.0000      -0.185349        -5.0436
  89   1.0000      -0.184581        -5.0227
  90   1.0000      -0.178725        -4.8634
  91   1.0000      -0.156571        -4.2605
  92   1.0000      -0.150738        -4.1018
  93   1.0000      -0.149898        -4.0789
  94   1.0000      -0.144146        -3.9224
  95   1.0000      -0.142933        -3.8894
  96   1.0000      -0.124633        -3.3914
  97   1.0000      -0.096533        -2.6268
  98   1.0000      -0.096237        -2.6187
  99   1.0000      -0.089874        -2.4456
 100   1.0000      -0.083492        -2.2719
 101   1.0000      -0.082649        -2.2490
 102   1.0000      -0.081616        -2.2209
 103   1.0000      -0.071404        -1.9430
 104   1.0000      -0.046610        -1.2683
 105   1.0000      -0.039400        -1.0721
 106   1.0000      -0.037661        -1.0248
 107   1.0000      -0.035296        -0.9605
 108   1.0000      -0.031949        -0.8694
 109   1.0000      -0.012750        -0.3469
 110   1.0000      -0.006273        -0.1707
 111   1.0000      -0.002806        -0.0764
 112   1.0000       0.006407         0.1743
 113   1.0000       0.010954         0.2981
 114   1.0000       0.033210         0.9037
 115   1.0000       0.058342         1.5876
 116   0.0000       0.184503         5.0206
 117   0.0000       0.185411         5.0453
 118   0.0000       0.192147         5.2286
 119   0.0000       0.196383         5.3438
 120   0.0000       0.197778         5.3818

MULLIKEN ATOMIC CHARGES AND SPIN POPULATIONS
--------------------------------------------
   0 V :    0.447574    1.199403
   1 S :   -0.249975   -0.024211
   2 S :   -0.253368   -0.024191
   3 S :   -0.255308   -0.023911
   4 S :   -0.254411   -0.024046
   5 O :   -0.506082   -0.139025
   6 C :   -0.116885    0.008869
   7 C :   -0.115608    0.008867
   8 C :   -0.097073    0.009014
   9 C :   -0.133526    0.008752
  10 S :   -0.044637   -0.000168
  11 S :   -0.044388   -0.000199
  12 S :   -0.032909   -0.000211
  13 S :   -0.050454   -0.000177
  14 C :   -0.337774    0.000288
  15 C :   -0.313654    0.000306
  16 C :   -0.338869    0.000270
  17 C :   -0.386320    0.000328
  18 C :   -0.084024    0.000135
  19 H :    0.146655   -0.000102
  20 H :    0.102052    0.000021
  21 H :    0.044597    0.000039
  22 H :    0.078653    0.000018
  23 H :    0.101851    0.000022
  24 H :    0.147175   -0.000103
  25 C :   -0.077586    0.000147
  26 H :    0.111546    0.000035
  27 H :    0.143692   -0.000112
  28 H :    0.063787   -0.000028
  29 H :    0.043065    0.000040
  30 H :    0.161805   -0.000098
  31 H :    0.100401    0.000029
Sum of atomic charges         :   -2.0000000

LOEWDIN ATOMIC CHARGES AND SPIN POPULATIONS
-------------------------------------------
   0 V :   -0.242802    1.153381
   1 S :    0.091289   -0.016431
   2 S :    0.088368   -0.016380
   3 S :    0.086453   -0.016130
   4 S :    0.087594   -0.016307
   5 O :   -0.350566   -0.124453
   6 C :   -0.553170    0.009996
   7 C :   -0.552773    0.009956
   8 C :   -0.548882    0.010041
   9 C :   -0.556727    0.009908
  10 S :    0.336811   -0.001027
  11 S :    0.336918   -0.001044
  12 S :    0.347594   -0.001043
  13 S :    0.332091   -0.001023
  14 C :   -0.293466    0.000165
  15 C :   -0.298559    0.000162
  16 C :   -0.293867    0.000156
  17 C :   -0.315833    0.000189
  18 C :   -0.184865   -0.000036
  19 H :    0.065668   -0.000027
  20 H :    0.047259    0.000004
  21 H :    0.046825    0.000017
  22 H :    0.053440    0.000013
  23 H :    0.047409    0.000005
  24 H :    0.066171   -0.000027
  25 C :   -0.208856   -0.000048
  26 H :    0.046944    0.000012
  27 H :    0.058768   -0.000033
  28 H :    0.074741   -0.000004
  29 H :    0.053743    0.000022
  30 H :    0.077181   -0.000024
  31 H :    0.055101    0.000009

  Mayer bond orders larger than 0.100000
B(  0-V ,  1-S ) :   0.7893 B(  0-V ,  2-S ) :   0.7914 B(  0-V ,  3-S ) :   0.7872
B(  0-V ,  4-S ) :   0.7884 B(  0-V ,  5-O ) :   2.1085 B(  1-S ,  8-C ) :   1.1447
B(  2-S ,  6-C ) :   1.1369 B(  3-S ,  9-C ) :   1.1321 B(  4-S ,  7-C ) :   1.1375
B(  6-C ,  7-C ) :   1.5176 B(  6-C , 10-S ) :   0.9536 B(  7-C , 11-S ) :   0.9541
B(  8-C ,  9-C ) :   1.5143 B(  8-C , 13-S ) :   0.9385 B(  9-C , 12-S ) :   0.9711
B( 10-S , 16-C ) :   1.0059 B( 11-S , 14-C ) :   1.0042 B( 12-S , 15-C ) :   0.9685
B( 13-S , 17-C ) :   1.0280 B( 14-C , 18-C ) :   0.8794 B( 14-C , 23-H ) :   0.9701
B( 14-C , 24-H ) :   0.9752 B( 15-C , 25-C ) :   0.9363 B( 15-C , 30-H ) :   0.9677
B( 15-C , 31-H ) :   0.9666 B( 16-C , 18-C ) :   0.8768 B( 16-C , 19-H ) :   0.9752
B( 16-C , 20-H ) :   0.9701 B( 17-C , 25-C ) :   0.8134 B( 17-C , 26-H ) :   0.9669
B( 17-C , 27-H ) :   0.9674 B( 18-C , 21-H ) :   0.9526 B( 18-C , 22-H ) :   0.9738
B( 25-C , 28-H ) :   0.9571 B( 25-C , 29-H ) :   0.9522

FINAL SINGLE POINT ENERGY     -4592.673510810125

DIPOLE MOMENT
-------------
                                X             Y             Z
Electronic contribution:     -1.20667       5.40456      26.15408
Nuclear contribution   :      1.27274      -5.87000     -29.14559
                        -----------------------------------------
Total Dipole Moment    :      0.06606      -0.46544      -2.99151
                        -----------------------------------------
Magnitude (a.u.)       :      3.02822
Magnitude (Debye)      :      7.69712

Rotational constants in cm-1:     0.012768     0.002548     0.002431
Rotational constants in MHz :   382.776896    76.398953    72.880202

                             ****ORCA TERMINATED NORMALLY****
TOTAL RUN TIME: 0 days 0 hours 27 minutes 37 seconds 556 msec
