                         Program Version 5.0.4 -  RELEASE  -
|  1> ! nofrozencore ReducedPop printbasis
|  2> ! B3LYP TZVP
|  3>
|  4> %basis
|  5> newgto V "CP(PPP)" end
|  6> end
|  7>
|  8> %pal
|  9> nprocs 4
| 10> end
| 11>
| 12> % sym SymThresh 1e-2 end
| 13> * xyz -2 2
| 14> V 0.350691978642791 -0.25504742342922887 -1.016236590746326
| 15> S -2.0903958683767008 -0.430665827628455 -1.0181642370466155
| 16> S 0.006184282352183552 2.1651875950558117 -0.9335060627276179
| 17> S 0.22445943619281736 -2.331878505502328 0.2697701697579474
| 18> S 2.3326474375883164 0.25801985358712354 0.326088222314975
| 19> O 0.8657387086026735 -0.6352140206336057 -2.525697594499877
| 20> C 1.5581642362162607 2.803675815107379 -0.368280993737894
| 21> C 2.5257530324745985 2.010099784287644 0.15718788648027404
| 22> C -2.397614357132624 -2.1009788786655745 -0.5257560468531571
| 23> C -1.4323927804776009 -2.8940639999218223 0.011290904886216806
| 24> S 1.7509394731733272 4.597567510965397 -0.5440309967216519
| 25> S 4.112599115168795 2.6598051572412786 0.7451206181012143
| 26> S -1.7497686737028855 -4.586312432243564 0.5491919991015553
| 27> S -4.097888619912593 -2.657754836222113 -0.7581140479807963
| 28> C 3.5544972859413453 3.5845815760042115 2.252547180649447
| 29> C -2.8734859158555643 -4.354160204387026 1.9959296237806208
| 30> C 1.693114494568018 5.1144138110543675 1.2356019915336898
| 31> C -4.7095407856655305 -2.847429777446281 0.973520943623771
| 32> C 3.17533762009982 5.123076102332478 1.8990019513238225
| 33> H 0.9428909414895837 4.75356453328694 2.0152118303730258
| 34> H 1.4614600927032715 6.17878767414914 0.962267099448177
| 35> H 2.8779427958926154 5.457854132729364 2.947938973193271
| 36> H 3.956726409103494 5.813222191941845 1.5075049699698548
| 37> H 4.593605961554348 3.603904590020905 2.6777983631535065
| 38> H 2.83009325079301 3.1996373686043222 3.0446836901104617
| 39> C -4.355367294908525 -4.160353570262183 1.6726716466999418
| 40> H -5.797747865664493 -2.761720208282203 0.891763489915634
| 41> H -4.3490163684886305 -1.988096267061265 1.5431582607937597
| 42> H -4.706334956560183 -5.000957789985347 1.0644193401458468
| 43> H -4.913655975233196 -4.196066214328159 2.622285333314217
| 44> H -2.485266501199057 -3.5165241822847664 2.579509167093666
| 45> H -2.7476128783750196 -5.263831534939301 2.5916263281081457
| 46> *
| 47>
| 48> % eprnmr
| 49> gtensor true
| 50> Nuclei = all H {aiso,adip,aorb,fgrad,rho}
| 51> Nuclei = all V {aiso,adip,aorb,fgrad,rho}
| 52> end
| 53>
| 54>                          ****END OF INPUT****

CARTESIAN COORDINATES (ANGSTROEM)
---------------------------------
  V      0.351115   -0.255254   -1.017326
  S     -2.089973   -0.430872   -1.019254
  S      0.006607    2.164981   -0.934596
  S      0.224882   -2.332085    0.268680
  S      2.333070    0.257814    0.324998
  O      0.866161   -0.635420   -2.526787
  C      1.558587    2.803470   -0.369371
  C      2.526176    2.009894    0.156098
  C     -2.397192   -2.101185   -0.526846
  C     -1.431970   -2.894270    0.010201
  S      1.751362    4.597361   -0.545121
  S      4.113022    2.659599    0.744031
  S     -1.749346   -4.586519    0.548102
  S     -4.097466   -2.657961   -0.759204
  C      3.554920    3.584375    2.251457
  C     -2.873063   -4.354366    1.994840
  C      1.693537    5.114208    1.234512
  C     -4.709118   -2.847636    0.972431
  C      3.175760    5.122870    1.897912
  H      0.943313    4.753358    2.014122
  H      1.461883    6.178582    0.961177
  H      2.878365    5.457648    2.946849
  H      3.957149    5.813016    1.506415
  H      4.594029    3.603698    2.676709
  H      2.830516    3.199431    3.043594
  C     -4.354945   -4.160560    1.671582
  H     -5.797325   -2.761926    0.890674
  H     -4.348594   -1.988302    1.542069
  H     -4.705912   -5.001164    1.063330
  H     -4.913233   -4.196272    2.621196
  H     -2.484844   -3.516730    2.578419
  H     -2.747190   -5.264038    2.590537

 Total Charge           Charge          ....   -2
 Multiplicity           Mult            ....    2
 Number of Electrons    NEL             ....  233
 Basis Dimension        Dim             ....  517

ORBITAL ENERGIES
----------------
                 SPIN UP ORBITALS
  NO   OCC          E(Eh)            E(eV)
   0   1.0000    -196.642698     -5350.9198
   1   1.0000     -88.681901     -2413.1572
   2   1.0000     -88.681869     -2413.1563
   3   1.0000     -88.676296     -2413.0047
   4   1.0000     -88.676281     -2413.0043
   5   1.0000     -88.612036     -2411.2561
   6   1.0000     -88.612001     -2411.2551
   7   1.0000     -88.611331     -2411.2369
   8   1.0000     -88.611308     -2411.2363
   9   1.0000     -22.018338      -599.1494
  10   1.0000     -18.850282      -512.9423
  11   1.0000     -18.525136      -504.0946
  12   1.0000     -18.519408      -503.9387
  13   1.0000     -18.519399      -503.9385
  14   1.0000     -10.031210      -272.9631
  15   1.0000     -10.031187      -272.9625
  16   1.0000     -10.021238      -272.6918
  17   1.0000     -10.015252      -272.5289
  18   1.0000     -10.015227      -272.5282
  19   1.0000     -10.004596      -272.2389
  20   1.0000      -9.991626      -271.8860
  21   1.0000      -9.990914      -271.8666
  22   1.0000      -9.990519      -271.8559
  23   1.0000      -9.989786      -271.8359
  24   1.0000      -7.735055      -210.4816
  25   1.0000      -7.735026      -210.4808
  26   1.0000      -7.729950      -210.3426
  27   1.0000      -7.729940      -210.3424
  28   1.0000      -7.666468      -208.6152
  29   1.0000      -7.666397      -208.6133
  30   1.0000      -7.665700      -208.5943
  31   1.0000      -7.665656      -208.5931
  32   1.0000      -5.700365      -155.1148
  33   1.0000      -5.700341      -155.1142
  34   1.0000      -5.696537      -155.0106
  35   1.0000      -5.696510      -155.0099
  36   1.0000      -5.695192      -154.9740
  37   1.0000      -5.695190      -154.9740
  38   1.0000      -5.691301      -154.8682
  39   1.0000      -5.691294      -154.8680
  40   1.0000      -5.689696      -154.8245
  41   1.0000      -5.689663      -154.8236
  42   1.0000      -5.684697      -154.6885
  43   1.0000      -5.684689      -154.6882
  44   1.0000      -5.631296      -153.2354
  45   1.0000      -5.631231      -153.2336
  46   1.0000      -5.630537      -153.2147
  47   1.0000      -5.630497      -153.2136
  48   1.0000      -5.624874      -153.0606
  49   1.0000      -5.624824      -153.0592
  50   1.0000      -5.624468      -153.0495
  51   1.0000      -5.624407      -153.0479
  52   1.0000      -5.624133      -153.0404
  53   1.0000      -5.624104      -153.0396
  54   1.0000      -5.623699      -153.0286
  55   1.0000      -5.623660      -153.0276
  56   1.0000      -2.410090       -65.5819
  57   1.0000      -1.447359       -39.3846
  58   1.0000      -1.440506       -39.1982
  59   1.0000      -1.439395       -39.1679
  60   1.0000      -0.643478       -17.5099
  61   1.0000      -0.632217       -17.2035
  62   1.0000      -0.608681       -16.5631
  63   1.0000      -0.593246       -16.1431
  64   1.0000      -0.583137       -15.8680
  65   1.0000      -0.575672       -15.6648
  66   1.0000      -0.572413       -15.5761
  67   1.0000      -0.490653       -13.3514
  68   1.0000      -0.487361       -13.2618
  69   1.0000      -0.486831       -13.2473
  70   1.0000      -0.480317       -13.0701
  71   1.0000      -0.421840       -11.4788
  72   1.0000      -0.416440       -11.3319
  73   1.0000      -0.411629       -11.2010
  74   1.0000      -0.405800       -11.0424
  75   1.0000      -0.375796       -10.2259
  76   1.0000      -0.372736       -10.1427
  77   1.0000      -0.295000        -8.0274
  78   1.0000      -0.292653        -7.9635
  79   1.0000      -0.277219        -7.5435
  80   1.0000      -0.266320        -7.2469
  81   1.0000      -0.257650        -7.0110
  82   1.0000      -0.250584        -6.8187
  83   1.0000      -0.240510        -6.5446
  84   1.0000      -0.212326        -5.7777
  85   1.0000      -0.206162        -5.6099
  86   1.0000      -0.193872        -5.2755
  87   1.0000      -0.191706        -5.2166
  88   1.0000      -0.184334        -5.0160
  89   1.0000      -0.181373        -4.9354
  90   1.0000      -0.170822        -4.6483
  91   1.0000      -0.167909        -4.5690
  92   1.0000      -0.157417        -4.2835
  93   1.0000      -0.155043        -4.2189
  94   1.0000      -0.148993        -4.0543
  95   1.0000      -0.146367        -3.9828
  96   1.0000      -0.142659        -3.8819
  97   1.0000      -0.096133        -2.6159
  98   1.0000      -0.089700        -2.4409
  99   1.0000      -0.084820        -2.3081
 100   1.0000      -0.080730        -2.1968
 101   1.0000      -0.078896        -2.1469
 102   1.0000      -0.067341        -1.8324
 103   1.0000      -0.059956        -1.6315
 104   1.0000      -0.049594        -1.3495
 105   1.0000      -0.038085        -1.0363
 106   1.0000      -0.037385        -1.0173
 107   1.0000      -0.035568        -0.9678
 108   1.0000      -0.030987        -0.8432
 109   1.0000      -0.012570        -0.3420
 110   1.0000      -0.004147        -0.1128
 111   1.0000      -0.002410        -0.0656
 112   1.0000       0.007009         0.1907
 113   1.0000       0.010817         0.2944
 114   1.0000       0.015722         0.4278
 115   1.0000       0.033693         0.9168
 116   1.0000       0.060645         1.6502
 117   0.0000       0.184746         5.0272
 118   0.0000       0.187416         5.0998
 119   0.0000       0.192718         5.2441
 120   0.0000       0.196491         5.3468
 121   0.0000       0.206807         5.6275

                 SPIN DOWN ORBITALS
  NO   OCC          E(Eh)            E(eV)
   0   1.0000    -196.642833     -5350.9235
   1   1.0000     -88.681915     -2413.1576
   2   1.0000     -88.681882     -2413.1567
   3   1.0000     -88.676309     -2413.0051
   4   1.0000     -88.676295     -2413.0047
   5   1.0000     -88.612204     -2411.2607
   6   1.0000     -88.612169     -2411.2597
   7   1.0000     -88.611502     -2411.2415
   8   1.0000     -88.611479     -2411.2409
   9   1.0000     -22.003341      -598.7414
  10   1.0000     -18.854320      -513.0521
  11   1.0000     -18.519672      -503.9459
  12   1.0000     -18.503723      -503.5119
  13   1.0000     -18.502968      -503.4913
  14   1.0000     -10.031205      -272.9630
  15   1.0000     -10.031183      -272.9624
  16   1.0000     -10.021238      -272.6917
  17   1.0000     -10.015248      -272.5287
  18   1.0000     -10.015223      -272.5281
  19   1.0000     -10.004596      -272.2389
  20   1.0000      -9.991370      -271.8790
  21   1.0000      -9.990659      -271.8597
  22   1.0000      -9.990262      -271.8488
  23   1.0000      -9.989530      -271.8289
  24   1.0000      -7.735070      -210.4819
  25   1.0000      -7.735041      -210.4812
  26   1.0000      -7.729965      -210.3430
  27   1.0000      -7.729955      -210.3428
  28   1.0000      -7.666624      -208.6195
  29   1.0000      -7.666554      -208.6175
  30   1.0000      -7.665859      -208.5986
  31   1.0000      -7.665815      -208.5974
  32   1.0000      -5.700383      -155.1153
  33   1.0000      -5.700358      -155.1146
  34   1.0000      -5.696558      -155.0112
  35   1.0000      -5.696532      -155.0105
  36   1.0000      -5.695209      -154.9745
  37   1.0000      -5.695207      -154.9745
  38   1.0000      -5.691322      -154.8687
  39   1.0000      -5.691315      -154.8686
  40   1.0000      -5.689714      -154.8250
  41   1.0000      -5.689681      -154.8241
  42   1.0000      -5.684715      -154.6889
  43   1.0000      -5.684707      -154.6887
  44   1.0000      -5.631474      -153.2402
  45   1.0000      -5.631409      -153.2384
  46   1.0000      -5.630718      -153.2196
  47   1.0000      -5.630678      -153.2185
  48   1.0000      -5.625287      -153.0718
  49   1.0000      -5.625237      -153.0705
  50   1.0000      -5.624611      -153.0534
  51   1.0000      -5.624552      -153.0518
  52   1.0000      -5.624551      -153.0518
  53   1.0000      -5.624522      -153.0510
  54   1.0000      -5.623846      -153.0326
  55   1.0000      -5.623807      -153.0316
  56   1.0000      -2.364867       -64.3513
  57   1.0000      -1.427137       -38.8344
  58   1.0000      -1.378249       -37.5041
  59   1.0000      -1.377433       -37.4818
  60   1.0000      -0.643428       -17.5086
  61   1.0000      -0.632131       -17.2012
  62   1.0000      -0.617874       -16.8132
  63   1.0000      -0.593069       -16.1382
  64   1.0000      -0.582977       -15.8636
  65   1.0000      -0.575668       -15.6647
  66   1.0000      -0.572408       -15.5760
  67   1.0000      -0.490692       -13.3524
  68   1.0000      -0.487406       -13.2630
  69   1.0000      -0.486855       -13.2480
  70   1.0000      -0.480376       -13.0717
  71   1.0000      -0.422121       -11.4865
  72   1.0000      -0.416740       -11.3401
  73   1.0000      -0.411662       -11.2019
  74   1.0000      -0.405915       -11.0455
  75   1.0000      -0.375761       -10.2250
  76   1.0000      -0.372774       -10.1437
  77   1.0000      -0.294975        -8.0267
  78   1.0000      -0.292636        -7.9630
  79   1.0000      -0.277200        -7.5430
  80   1.0000      -0.266203        -7.2438
  81   1.0000      -0.257581        -7.0091
  82   1.0000      -0.250550        -6.8178
  83   1.0000      -0.240413        -6.5420
  84   1.0000      -0.212149        -5.7729
  85   1.0000      -0.206133        -5.6092
  86   1.0000      -0.193595        -5.2680
  87   1.0000      -0.191672        -5.2157
  88   1.0000      -0.184256        -5.0139
  89   1.0000      -0.179268        -4.8781
  90   1.0000      -0.170723        -4.6456
  91   1.0000      -0.167707        -4.5636
  92   1.0000      -0.157334        -4.2813
  93   1.0000      -0.154825        -4.2130
  94   1.0000      -0.148335        -4.0364
  95   1.0000      -0.146130        -3.9764
  96   1.0000      -0.142476        -3.8770
  97   1.0000      -0.095667        -2.6032
  98   1.0000      -0.088478        -2.4076
  99   1.0000      -0.084724        -2.3055
 100   1.0000      -0.080250        -2.1837
 101   1.0000      -0.079368        -2.1597
 102   1.0000      -0.069737        -1.8976
 103   1.0000      -0.061770        -1.6809
 104   1.0000      -0.045542        -1.2393
 105   1.0000      -0.038494        -1.0475
 106   1.0000      -0.036508        -0.9934
 107   1.0000      -0.034708        -0.9444
 108   1.0000      -0.030936        -0.8418
 109   1.0000      -0.011839        -0.3222
 110   1.0000      -0.004746        -0.1291
 111   1.0000      -0.002690        -0.0732
 112   1.0000       0.007829         0.2130
 113   1.0000       0.011678         0.3178
 114   1.0000       0.034008         0.9254
 115   1.0000       0.059663         1.6235
 116   0.0000       0.185098         5.0368
 117   0.0000       0.185679         5.0526
 118   0.0000       0.188136         5.1194
 119   0.0000       0.193798         5.2735
 120   0.0000       0.196795         5.3551

MULLIKEN ATOMIC CHARGES AND SPIN POPULATIONS
--------------------------------------------
   0 V :    0.435326    1.223763
   1 S :   -0.249562   -0.025737
   2 S :   -0.252054   -0.026037
   3 S :   -0.249774   -0.025660
   4 S :   -0.252315   -0.025956
   5 O :   -0.522950   -0.156778
   6 C :   -0.105589    0.008993
   7 C :   -0.103484    0.008951
   8 C :   -0.114677    0.009072
   9 C :   -0.115537    0.009040
  10 S :   -0.049330   -0.000225
  11 S :   -0.049293   -0.000256
  12 S :   -0.044443   -0.000225
  13 S :   -0.044767   -0.000257
  14 C :   -0.281304    0.000314
  15 C :   -0.337722    0.000287
  16 C :   -0.280014    0.000299
  17 C :   -0.336930    0.000306
  18 C :   -0.126086    0.000074
  19 H :    0.131555   -0.000078
  20 H :    0.076974    0.000041
  21 H :    0.031984    0.000015
  22 H :    0.096754    0.000057
  23 H :    0.077226    0.000042
  24 H :    0.131865   -0.000081
  25 C :   -0.085121    0.000141
  26 H :    0.101353    0.000026
  27 H :    0.146496   -0.000104
  28 H :    0.078856    0.000014
  29 H :    0.044355    0.000035
  30 H :    0.146815   -0.000101
  31 H :    0.101396    0.000025
Sum of atomic charges         :   -2.0000000

LOEWDIN ATOMIC CHARGES AND SPIN POPULATIONS
-------------------------------------------
   0 V :   -0.235449    1.176036
   1 S :    0.091891   -0.017596
   2 S :    0.089069   -0.017934
   3 S :    0.091747   -0.017524
   4 S :    0.088677   -0.017921
   5 O :   -0.384736   -0.141678
   6 C :   -0.548935    0.010159
   7 C :   -0.548342    0.010110
   8 C :   -0.552186    0.010049
   9 C :   -0.552609    0.010086
  10 S :    0.342343   -0.001141
  11 S :    0.342076   -0.001160
  12 S :    0.337151   -0.001088
  13 S :    0.337098   -0.001105
  14 C :   -0.298351    0.000212
  15 C :   -0.293717    0.000178
  16 C :   -0.298564    0.000205
  17 C :   -0.293761    0.000187
  18 C :   -0.191298   -0.000024
  19 H :    0.073645   -0.000029
  20 H :    0.042739    0.000012
  21 H :    0.044478    0.000025
  22 H :    0.059122    0.000010
  23 H :    0.042742    0.000013
  24 H :    0.073765   -0.000030
  25 C :   -0.184756   -0.000042
  26 H :    0.047139    0.000009
  27 H :    0.065852   -0.000028
  28 H :    0.053444    0.000011
  29 H :    0.046672    0.000017
  30 H :    0.065925   -0.000027
  31 H :    0.047127    0.000008

  Mayer bond orders larger than 0.100000
B(  0-V ,  1-S ) :   0.7958 B(  0-V ,  2-S ) :   0.8006 B(  0-V ,  3-S ) :   0.7979
B(  0-V ,  4-S ) :   0.7980 B(  0-V ,  5-O ) :   2.0887 B(  1-S ,  8-C ) :   1.1370
B(  2-S ,  6-C ) :   1.1317 B(  3-S ,  9-C ) :   1.1358 B(  4-S ,  7-C ) :   1.1329
B(  6-C ,  7-C ) :   1.5566 B(  6-C , 10-S ) :   0.9329 B(  7-C , 11-S ) :   0.9325
B(  8-C ,  9-C ) :   1.5186 B(  8-C , 13-S ) :   0.9532 B(  9-C , 12-S ) :   0.9536
B( 10-S , 16-C ) :   1.0147 B( 11-S , 14-C ) :   1.0146 B( 12-S , 15-C ) :   1.0056
B( 13-S , 17-C ) :   1.0055 B( 14-C , 18-C ) :   0.9085 B( 14-C , 23-H ) :   0.9815
B( 14-C , 24-H ) :   0.9335 B( 15-C , 25-C ) :   0.8783 B( 15-C , 30-H ) :   0.9746
B( 15-C , 31-H ) :   0.9702 B( 16-C , 18-C ) :   0.9089 B( 16-C , 19-H ) :   0.9333
B( 16-C , 20-H ) :   0.9814 B( 17-C , 25-C ) :   0.8785 B( 17-C , 26-H ) :   0.9703
B( 17-C , 27-H ) :   0.9746 B( 18-C , 21-H ) :   0.9761 B( 18-C , 22-H ) :   0.9465
B( 25-C , 28-H ) :   0.9738 B( 25-C , 29-H ) :   0.9529

FINAL SINGLE POINT ENERGY     -4592.673449877811

DIPOLE MOMENT
-------------
                                X             Y             Z
Electronic contribution:      8.53430      -6.26767     -24.79140
Nuclear contribution   :     -9.44157       7.06948      27.63044
                        -----------------------------------------
Total Dipole Moment    :     -0.90727       0.80181       2.83904
                        -----------------------------------------
Magnitude (a.u.)       :      3.08645
Magnitude (Debye)      :      7.84514

Rotational constants in cm-1:     0.012716     0.002547     0.002430
Rotational constants in MHz :   381.229806    76.347044    72.843073

                             ****ORCA TERMINATED NORMALLY****
TOTAL RUN TIME: 0 days 0 hours 43 minutes 13 seconds 19 msec
