                         Program Version 5.0.4 -  RELEASE  -
|  1> ! nofrozencore ReducedPop printbasis
|  2> ! B3LYP TZVP
|  3>
|  4> %basis
|  5> newgto V "CP(PPP)" end
|  6> end
|  7>
|  8> %pal
|  9> nprocs 8
| 10> end
| 11>
| 12> % sym SymThresh 1e-2 end
| 13> * xyz -2 2
| 14> V -0.40599950216456476 -0.8715789090584073 0.5653570415955584
| 15> S 1.7679005839480735 -1.5297296505504885 -0.35473681491739956
| 16> S 0.8729516130279302 0.5129360147697821 2.1290474701471616
| 17> S -1.137167013884581 -1.0760406464942243 -1.7633194915474386
| 18> S -2.044024952776568 0.9435644054292613 0.7377534326078556
| 19> O -0.982927203758426 -2.12265816041804 1.3723582087830943
| 20> C -0.3112211225198942 1.6738564343232838 2.743007852296453
| 21> C -1.526324200695737 1.8541603937949072 2.162124665800711
| 22> C 1.376128002262384 -2.1737494718971573 -1.9537560730787684
| 23> C 0.16493891310354125 -1.984827084741782 -2.541270587965922
| 24> S 0.23202474959521427 2.6195293769918546 4.18027706146482
| 25> S -2.7233709994973427 3.0629175176353316 2.7633941958784063
| 26> S -0.2268668919684356 -2.6080564643071322 -4.188473470448675
| 27> S 2.720282227647376 -3.0689730016161376 -2.758943976196519
| 28> C -1.881123854856892 4.665951016330281 2.3770830346846887
| 29> C 0.8673242509226076 -1.596968407220213 -5.280049978964222
| 30> C 0.41113515804092243 4.323060069917314 3.477766539060836
| 31> C 3.1695306555854597 -1.9580143505122667 -4.163928975587484
| 32> C -0.8706045413773587 5.157525385699329 3.416355801653147
| 33> H 0.7441342094397958 4.275054228481244 2.8139145481581456
| 34> H 1.2153406109234184 4.8912449407243805 4.277523839862783
| 35> H -0.5985237598130184 6.175992546413239 3.167197739677049
| 36> H -1.395371483701699 5.197810897306789 4.521544864110375
| 37> H -2.835123842633989 5.498780868045302 2.328365322118984
| 38> H -1.580139179480353 4.62095673271301 1.6944944886716098
| 39> C 2.309890543263974 -2.081213025432519 -5.421412196978449
| 40> H 4.218616969020534 -2.2274020569915747 -4.409050016134848
| 41> H 3.167517544069045 -0.9647177321785607 -3.7932102757801416
| 42> H 2.3093100012416508 -3.135274681751254 -5.7613862370544
| 43> H 2.7881990730256896 -1.4895519672736919 -6.21629021532061
| 44> H 0.8308705200188171 -0.5993471991406271 -4.9248618811652936
| 45> H 0.3725124215142872 -1.6226310109246327 -6.274294095350988
| 46> *
| 47>
| 48> % eprnmr
| 49> gtensor true
| 50> Nuclei = all H {aiso,adip,aorb,fgrad,rho}
| 51> Nuclei = all V {aiso,adip,aorb,fgrad,rho}
| 52> end
| 53>
| 54>                          ****END OF INPUT****

CARTESIAN COORDINATES (ANGSTROEM)
---------------------------------
  V     -0.406447   -0.872455    0.566021
  S      1.767453   -1.530606   -0.354073
  S      0.872505    0.512059    2.129711
  S     -1.137614   -1.076917   -1.762656
  S     -2.044472    0.942688    0.738417
  O     -0.983374   -2.123535    1.373022
  C     -0.311668    1.672980    2.743671
  C     -1.526771    1.853284    2.162788
  C      1.375681   -2.174626   -1.953092
  C      0.164492   -1.985704   -2.540607
  S      0.231578    2.618653    4.180941
  S     -2.723818    3.062041    2.764058
  S     -0.227314   -2.608933   -4.187810
  S      2.719835   -3.069850   -2.758280
  C     -1.881571    4.665074    2.377747
  C      0.866877   -1.597845   -5.279386
  C      0.410688    4.322184    3.478430
  C      3.169084   -1.958891   -4.163265
  C     -0.871052    5.156649    3.417019
  H      0.743687    4.274178    2.814578
  H      1.214894    4.890368    4.278187
  H     -0.598971    6.175116    3.167861
  H     -1.395819    5.196934    4.522208
  H     -2.835571    5.497904    2.329029
  H     -1.580586    4.620080    1.695158
  C      2.309443   -2.082090   -5.420749
  H      4.218170   -2.228279   -4.408386
  H      3.167070   -0.965594   -3.792547
  H      2.308863   -3.136151   -5.760723
  H      2.787752   -1.490429   -6.215627
  H      0.830423   -0.600224   -4.924198
  H      0.372065   -1.623508   -6.273631

 Total Charge           Charge          ....   -2
 Multiplicity           Mult            ....    2
 Number of Electrons    NEL             ....  233
 Basis Dimension        Dim             ....  517

ORBITAL ENERGIES
----------------
                 SPIN UP ORBITALS
  NO   OCC          E(Eh)            E(eV)
   0   1.0000    -196.641045     -5350.8749
   1   1.0000     -88.678507     -2413.0649
   2   1.0000     -88.678472     -2413.0639
   3   1.0000     -88.676940     -2413.0222
   4   1.0000     -88.676914     -2413.0215
   5   1.0000     -88.613024     -2411.2830
   6   1.0000     -88.612972     -2411.2816
   7   1.0000     -88.612601     -2411.2715
   8   1.0000     -88.612476     -2411.2681
   9   1.0000     -22.016866      -599.1094
  10   1.0000     -18.858375      -513.1625
  11   1.0000     -18.523697      -504.0554
  12   1.0000     -18.517923      -503.8983
  13   1.0000     -18.517898      -503.8976
  14   1.0000     -10.015961      -272.5482
  15   1.0000     -10.014435      -272.5066
  16   1.0000     -10.014380      -272.5051
  17   1.0000     -10.005848      -272.2730
  18   1.0000     -10.003216      -272.2013
  19   1.0000     -10.003169      -272.2001
  20   1.0000      -9.993827      -271.9459
  21   1.0000      -9.993104      -271.9262
  22   1.0000      -9.992392      -271.9068
  23   1.0000      -9.991679      -271.8874
  24   1.0000      -7.732019      -210.3989
  25   1.0000      -7.731974      -210.3977
  26   1.0000      -7.730579      -210.3597
  27   1.0000      -7.730564      -210.3593
  28   1.0000      -7.667473      -208.6425
  29   1.0000      -7.667457      -208.6421
  30   1.0000      -7.667028      -208.6305
  31   1.0000      -7.666931      -208.6278
  32   1.0000      -5.697321      -155.0320
  33   1.0000      -5.697270      -155.0306
  34   1.0000      -5.695819      -154.9911
  35   1.0000      -5.695806      -154.9907
  36   1.0000      -5.693437      -154.9263
  37   1.0000      -5.693398      -154.9252
  38   1.0000      -5.691938      -154.8855
  39   1.0000      -5.691927      -154.8852
  40   1.0000      -5.686646      -154.7415
  41   1.0000      -5.686606      -154.7404
  42   1.0000      -5.685326      -154.7056
  43   1.0000      -5.685306      -154.7050
  44   1.0000      -5.632301      -153.2627
  45   1.0000      -5.632281      -153.2621
  46   1.0000      -5.631876      -153.2511
  47   1.0000      -5.631773      -153.2483
  48   1.0000      -5.625903      -153.0886
  49   1.0000      -5.625887      -153.0882
  50   1.0000      -5.625481      -153.0771
  51   1.0000      -5.625476      -153.0770
  52   1.0000      -5.625448      -153.0762
  53   1.0000      -5.625375      -153.0742
  54   1.0000      -5.625013      -153.0644
  55   1.0000      -5.624912      -153.0616
  56   1.0000      -2.410342       -65.5887
  57   1.0000      -1.451665       -39.5018
  58   1.0000      -1.440117       -39.1876
  59   1.0000      -1.439041       -39.1583
  60   1.0000      -0.659113       -17.9354
  61   1.0000      -0.644685       -17.5428
  62   1.0000      -0.619413       -16.8551
  63   1.0000      -0.598344       -16.2818
  64   1.0000      -0.595756       -16.2113
  65   1.0000      -0.594095       -16.1662
  66   1.0000      -0.576888       -15.6979
  67   1.0000      -0.502202       -13.6656
  68   1.0000      -0.491813       -13.3829
  69   1.0000      -0.489970       -13.3328
  70   1.0000      -0.487830       -13.2745
  71   1.0000      -0.438977       -11.9452
  72   1.0000      -0.433117       -11.7857
  73   1.0000      -0.422275       -11.4907
  74   1.0000      -0.411417       -11.1952
  75   1.0000      -0.390930       -10.6377
  76   1.0000      -0.376395       -10.2422
  77   1.0000      -0.299059        -8.1378
  78   1.0000      -0.292356        -7.9554
  79   1.0000      -0.288659        -7.8548
  80   1.0000      -0.277679        -7.5560
  81   1.0000      -0.270020        -7.3476
  82   1.0000      -0.262314        -7.1379
  83   1.0000      -0.246990        -6.7209
  84   1.0000      -0.241389        -6.5685
  85   1.0000      -0.194858        -5.3024
  86   1.0000      -0.190934        -5.1956
  87   1.0000      -0.190575        -5.1858
  88   1.0000      -0.185387        -5.0446
  89   1.0000      -0.184167        -5.0115
  90   1.0000      -0.178583        -4.8595
  91   1.0000      -0.176490        -4.8026
  92   1.0000      -0.154478        -4.2036
  93   1.0000      -0.153676        -4.1817
  94   1.0000      -0.151607        -4.1254
  95   1.0000      -0.146733        -3.9928
  96   1.0000      -0.144346        -3.9279
  97   1.0000      -0.098494        -2.6801
  98   1.0000      -0.097832        -2.6621
  99   1.0000      -0.090753        -2.4695
 100   1.0000      -0.084594        -2.3019
 101   1.0000      -0.082479        -2.2444
 102   1.0000      -0.081266        -2.2114
 103   1.0000      -0.070916        -1.9297
 104   1.0000      -0.050824        -1.3830
 105   1.0000      -0.039236        -1.0677
 106   1.0000      -0.039061        -1.0629
 107   1.0000      -0.036752        -1.0001
 108   1.0000      -0.033132        -0.9016
 109   1.0000      -0.013894        -0.3781
 110   1.0000      -0.005259        -0.1431
 111   1.0000      -0.004177        -0.1137
 112   1.0000       0.005347         0.1455
 113   1.0000       0.009850         0.2680
 114   1.0000       0.015471         0.4210
 115   1.0000       0.032466         0.8835
 116   1.0000       0.058630         1.5954
 117   0.0000       0.181980         4.9519
 118   0.0000       0.186678         5.0798
 119   0.0000       0.194661         5.2970
 120   0.0000       0.195461         5.3188
 121   0.0000       0.210495         5.7279

                 SPIN DOWN ORBITALS
  NO   OCC          E(Eh)            E(eV)
   0   1.0000    -196.641185     -5350.8787
   1   1.0000     -88.678520     -2413.0652
   2   1.0000     -88.678484     -2413.0642
   3   1.0000     -88.676953     -2413.0226
   4   1.0000     -88.676927     -2413.0219
   5   1.0000     -88.613178     -2411.2872
   6   1.0000     -88.613126     -2411.2857
   7   1.0000     -88.612756     -2411.2757
   8   1.0000     -88.612631     -2411.2723
   9   1.0000     -22.002308      -598.7132
  10   1.0000     -18.861741      -513.2541
  11   1.0000     -18.518674      -503.9187
  12   1.0000     -18.502525      -503.4793
  13   1.0000     -18.501836      -503.4606
  14   1.0000     -10.015961      -272.5482
  15   1.0000     -10.014431      -272.5065
  16   1.0000     -10.014377      -272.5051
  17   1.0000     -10.005848      -272.2730
  18   1.0000     -10.003213      -272.2013
  19   1.0000     -10.003166      -272.2000
  20   1.0000      -9.993573      -271.9389
  21   1.0000      -9.992851      -271.9193
  22   1.0000      -9.992138      -271.8999
  23   1.0000      -9.991426      -271.8805
  24   1.0000      -7.732032      -210.3993
  25   1.0000      -7.731987      -210.3981
  26   1.0000      -7.730592      -210.3601
  27   1.0000      -7.730577      -210.3597
  28   1.0000      -7.667616      -208.6464
  29   1.0000      -7.667600      -208.6460
  30   1.0000      -7.667172      -208.6343
  31   1.0000      -7.667074      -208.6317
  32   1.0000      -5.697338      -155.0324
  33   1.0000      -5.697286      -155.0310
  34   1.0000      -5.695835      -154.9916
  35   1.0000      -5.695822      -154.9912
  36   1.0000      -5.693457      -154.9268
  37   1.0000      -5.693417      -154.9258
  38   1.0000      -5.691958      -154.8860
  39   1.0000      -5.691947      -154.8858
  40   1.0000      -5.686662      -154.7419
  41   1.0000      -5.686622      -154.7408
  42   1.0000      -5.685342      -154.7060
  43   1.0000      -5.685322      -154.7055
  44   1.0000      -5.632469      -153.2673
  45   1.0000      -5.632448      -153.2667
  46   1.0000      -5.632043      -153.2557
  47   1.0000      -5.631940      -153.2529
  48   1.0000      -5.626277      -153.0988
  49   1.0000      -5.626259      -153.0983
  50   1.0000      -5.625853      -153.0872
  51   1.0000      -5.625754      -153.0845
  52   1.0000      -5.625613      -153.0807
  53   1.0000      -5.625583      -153.0799
  54   1.0000      -5.625144      -153.0679
  55   1.0000      -5.625043      -153.0652
  56   1.0000      -2.366511       -64.3960
  57   1.0000      -1.433270       -39.0013
  58   1.0000      -1.379044       -37.5257
  59   1.0000      -1.378398       -37.5081
  60   1.0000      -0.659082       -17.9345
  61   1.0000      -0.644634       -17.5414
  62   1.0000      -0.626583       -17.0502
  63   1.0000      -0.598123       -16.2757
  64   1.0000      -0.595753       -16.2113
  65   1.0000      -0.593892       -16.1606
  66   1.0000      -0.576881       -15.6977
  67   1.0000      -0.502165       -13.6646
  68   1.0000      -0.491829       -13.3833
  69   1.0000      -0.489999       -13.3335
  70   1.0000      -0.487831       -13.2745
  71   1.0000      -0.439002       -11.9458
  72   1.0000      -0.433391       -11.7932
  73   1.0000      -0.422548       -11.4981
  74   1.0000      -0.411451       -11.1961
  75   1.0000      -0.390934       -10.6379
  76   1.0000      -0.376394       -10.2422
  77   1.0000      -0.299055        -8.1377
  78   1.0000      -0.292335        -7.9548
  79   1.0000      -0.288620        -7.8537
  80   1.0000      -0.277661        -7.5555
  81   1.0000      -0.270007        -7.3473
  82   1.0000      -0.262214        -7.1352
  83   1.0000      -0.246780        -6.7152
  84   1.0000      -0.241289        -6.5658
  85   1.0000      -0.194422        -5.2905
  86   1.0000      -0.190895        -5.1945
  87   1.0000      -0.190478        -5.1832
  88   1.0000      -0.185095        -5.0367
  89   1.0000      -0.183415        -4.9910
  90   1.0000      -0.177457        -4.8288
  91   1.0000      -0.176419        -4.8006
  92   1.0000      -0.154254        -4.1975
  93   1.0000      -0.153450        -4.1756
  94   1.0000      -0.150929        -4.1070
  95   1.0000      -0.146522        -3.9871
  96   1.0000      -0.144165        -3.9229
  97   1.0000      -0.097332        -2.6485
  98   1.0000      -0.096758        -2.6329
  99   1.0000      -0.090767        -2.4699
 100   1.0000      -0.084529        -2.3001
 101   1.0000      -0.082826        -2.2538
 102   1.0000      -0.082010        -2.2316
 103   1.0000      -0.072027        -1.9600
 104   1.0000      -0.046708        -1.2710
 105   1.0000      -0.039284        -1.0690
 106   1.0000      -0.038402        -1.0450
 107   1.0000      -0.035694        -0.9713
 108   1.0000      -0.033076        -0.9001
 109   1.0000      -0.012940        -0.3521
 110   1.0000      -0.006515        -0.1773
 111   1.0000      -0.003188        -0.0868
 112   1.0000       0.006187         0.1684
 113   1.0000       0.010781         0.2934
 114   1.0000       0.032726         0.8905
 115   1.0000       0.057876         1.5749
 116   0.0000       0.181450         4.9375
 117   0.0000       0.184929         5.0322
 118   0.0000       0.187866         5.1121
 119   0.0000       0.195171         5.3109
 120   0.0000       0.195613         5.3229

MULLIKEN ATOMIC CHARGES AND SPIN POPULATIONS
--------------------------------------------
   0 V :    0.446458    1.192795
   1 S :   -0.253443   -0.023799
   2 S :   -0.250667   -0.023537
   3 S :   -0.253512   -0.023695
   4 S :   -0.251198   -0.023447
   5 O :   -0.506919   -0.134256
   6 C :   -0.118782    0.008785
   7 C :   -0.117081    0.008817
   8 C :   -0.116065    0.008883
   9 C :   -0.116849    0.008809
  10 S :   -0.047691   -0.000159
  11 S :   -0.047518   -0.000192
  12 S :   -0.044907   -0.000173
  13 S :   -0.045147   -0.000205
  14 C :   -0.382660    0.000479
  15 C :   -0.337501    0.000310
  16 C :   -0.382180    0.000466
  17 C :   -0.336755    0.000329
  18 C :   -0.075482    0.000077
  19 H :    0.253493   -0.000164
  20 H :    0.038789   -0.000000
  21 H :    0.058796    0.000030
  22 H :    0.058275   -0.000003
  23 H :    0.039296    0.000001
  24 H :    0.252801   -0.000165
  25 C :   -0.084087    0.000130
  26 H :    0.095707    0.000029
  27 H :    0.153356   -0.000108
  28 H :    0.076519    0.000007
  29 H :    0.045689    0.000034
  30 H :    0.153588   -0.000105
  31 H :    0.095680    0.000027
Sum of atomic charges         :   -2.0000000

LOEWDIN ATOMIC CHARGES AND SPIN POPULATIONS
-------------------------------------------
   0 V :   -0.243163    1.147505
   1 S :    0.088245   -0.016094
   2 S :    0.089063   -0.015878
   3 S :    0.088063   -0.016007
   4 S :    0.088773   -0.015833
   5 O :   -0.351354   -0.120049
   6 C :   -0.552535    0.009989
   7 C :   -0.551962    0.009949
   8 C :   -0.552531    0.009926
   9 C :   -0.552930    0.009950
  10 S :    0.343998   -0.000995
  11 S :    0.343758   -0.001014
  12 S :    0.336920   -0.001017
  13 S :    0.336875   -0.001031
  14 C :   -0.200058    0.000165
  15 C :   -0.290329    0.000162
  16 C :   -0.198604    0.000157
  17 C :   -0.290482    0.000172
  18 C :   -0.169432   -0.000041
  19 H :   -0.068285    0.000006
  20 H :    0.062482   -0.000006
  21 H :    0.045026    0.000014
  22 H :    0.066839    0.000007
  23 H :    0.062459   -0.000004
  24 H :   -0.066230    0.000006
  25 C :   -0.184798   -0.000038
  26 H :    0.049882    0.000010
  27 H :    0.059522   -0.000022
  28 H :    0.054984    0.000009
  29 H :    0.046454    0.000018
  30 H :    0.059434   -0.000022
  31 H :    0.049916    0.000009

  Mayer bond orders larger than 0.100000
B(  0-V ,  1-S ) :   0.7897 B(  0-V ,  2-S ) :   0.7903 B(  0-V ,  3-S ) :   0.7918
B(  0-V ,  4-S ) :   0.7877 B(  0-V ,  5-O ) :   2.1082 B(  1-S ,  8-C ) :   1.1380
B(  2-S ,  6-C ) :   1.1413 B(  3-S ,  9-C ) :   1.1372 B(  4-S ,  7-C ) :   1.1424
B(  6-C ,  7-C ) :   1.5006 B(  6-C , 10-S ) :   0.9595 B(  7-C , 11-S ) :   0.9595
B(  8-C ,  9-C ) :   1.5166 B(  8-C , 13-S ) :   0.9544 B(  9-C , 12-S ) :   0.9548
B( 10-S , 16-C ) :   0.9973 B( 11-S , 14-C ) :   0.9973 B( 12-S , 15-C ) :   1.0050
B( 13-S , 17-C ) :   1.0049 B( 14-C , 18-C ) :   0.8637 B( 14-C , 23-H ) :   0.9538
B( 14-C , 24-H ) :   0.9833 B( 15-C , 25-C ) :   0.8780 B( 15-C , 30-H ) :   0.9767
B( 15-C , 31-H ) :   0.9700 B( 16-C , 18-C ) :   0.8635 B( 16-C , 19-H ) :   0.9835
B( 16-C , 20-H ) :   0.9535 B( 17-C , 25-C ) :   0.8777 B( 17-C , 26-H ) :   0.9700
B( 17-C , 27-H ) :   0.9766 B( 18-C , 21-H ) :   0.9551 B( 18-C , 22-H ) :   0.9697
B( 25-C , 28-H ) :   0.9741 B( 25-C , 29-H ) :   0.9527

FINAL SINGLE POINT ENERGY     -4592.381596957888

DIPOLE MOMENT
-------------
                                X             Y             Z
Electronic contribution:     -9.38499     -21.09301      12.73441
Nuclear contribution   :     10.54159      23.37194     -14.40952
                        -----------------------------------------
Total Dipole Moment    :      1.15660       2.27892      -1.67511
                        -----------------------------------------
Magnitude (a.u.)       :      3.05568
Magnitude (Debye)      :      7.76693

Rotational constants in cm-1:     0.012769     0.002549     0.002431
Rotational constants in MHz :   382.817423    76.408011    72.884235

                             ****ORCA TERMINATED NORMALLY****
TOTAL RUN TIME: 0 days 0 hours 27 minutes 19 seconds 377 msec
