                         Program Version 5.0.4 -  RELEASE  -
|  1> ! nofrozencore ReducedPop printbasis
|  2> ! B3LYP TZVP
|  3>
|  4> %basis
|  5> newgto V "CP(PPP)" end
|  6> end
|  7>
|  8> %pal
|  9> nprocs 8
| 10> end
| 11>
| 12> % sym SymThresh 1e-2 end
| 13> * xyz -2 2
| 14> V 0.4686310509941584 -1.0073089452776924 0.09918294322439603
| 15> S 0.6830334403259437 0.12839332199582562 2.2601733121998366
| 16> S -1.9082156136909005 -1.2232351221372442 0.6475418322627045
| 17> S 2.211582771988652 0.5715077615448044 -0.5852647019213075
| 18> S -0.36827634397441106 -0.8091110106995509 -2.1961873014849145
| 19> O 1.1416829613781359 -2.4476447645931905 0.2464731832277012
| 20> C -2.6830498107792815 -1.5545456916971452 -0.9085089660768926
| 21> C -2.0374127177249814 -1.377823708788312 -2.091596086995366
| 22> C 2.2105156899493066 1.008418211048767 2.1288455959975456
| 23> C 2.848329262371239 1.1932961273064033 0.9426885856470585
| 24> S -4.392872521498154 -2.109408582756993 -0.8004713571868654
| 25> S -2.8343659465501068 -1.6791788722532057 -3.685701998680112
| 26> S 4.387878477468409 2.122619546904587 0.7985177391279898
| 27> S 2.8373249717476123 1.6724143620229341 3.6855239980478802
| 28> C -4.143506625952148 -0.3197292181756368 -3.761074101630336
| 29> C 3.8686622908930057 3.8455099579073257 1.2015878024531035
| 30> C -5.320837459976008 -0.7253968578199181 -1.494628990009911
| 31> C 2.656114822007015 3.4982047753600414 3.458657975322342
| 32> C -5.438806893677683 -0.6409133857629231 -3.0175996024096716
| 33> H -4.965814771170436 0.3116179489771172 -1.2731249602430257
| 34> H -6.385026035702659 -0.6985238753747997 -1.1799164063714644
| 35> H -5.989536197267318 0.19904259090942467 -3.5892113951825975
| 36> H -5.943558737797821 -1.6075702387194084 -3.2265913502840395
| 37> H -4.205110013988352 -0.28713024404901855 -4.864922250726647
| 38> H -3.4692605143611854 0.5072558070460867 -3.436461068519384
| 39> C 3.7762972944105777 4.19365676281124 2.686594171914863
| 40> H 2.6085749314480986 3.8913366713556137 4.479023118773731
| 41> H 1.6817113266357289 3.6571148340826807 2.9916710257713
| 42> H 4.740988696130034 3.9754442754444117 3.15754814337145
| 43> H 3.607377223493236 5.278073494163404 2.789114923964221
| 44> H 2.913240908093903 4.0311991704054 0.7057080663737847
| 45> H 4.617775175565312 4.490160813293122 0.7307061396297388
| 46> *
| 47>
| 48> % eprnmr
| 49> gtensor true
| 50> Nuclei = all H {aiso,adip,aorb,fgrad,rho}
| 51> Nuclei = all V {aiso,adip,aorb,fgrad,rho}
| 52> end
| 53>
| 54>                          ****END OF INPUT****

CARTESIAN COORDINATES (ANGSTROEM)
---------------------------------
  V      0.469062   -1.008412    0.099255
  S      0.683465    0.127290    2.260245
  S     -1.907784   -1.224339    0.647613
  S      2.212014    0.570404   -0.585193
  S     -0.367845   -0.810214   -2.196116
  O      1.142114   -2.448748    0.246545
  C     -2.682619   -1.555649   -0.908437
  C     -2.036981   -1.378927   -2.091524
  C      2.210947    1.007315    2.128917
  C      2.848761    1.192193    0.942760
  S     -4.392441   -2.110512   -0.800400
  S     -2.833935   -1.680282   -3.685630
  S      4.388310    2.121516    0.798589
  S      2.837756    1.671311    3.685596
  C     -4.143075   -0.320833   -3.761002
  C      3.869094    3.844407    1.201659
  C     -5.320406   -0.726500   -1.494557
  C      2.656546    3.497101    3.458730
  C     -5.438376   -0.642017   -3.017528
  H     -4.965383    0.310515   -1.273053
  H     -6.384595   -0.699627   -1.179845
  H     -5.989105    0.197939   -3.589140
  H     -5.943127   -1.608674   -3.226520
  H     -4.204679   -0.288234   -4.864851
  H     -3.468829    0.506152   -3.436389
  C      3.776729    4.192553    2.686666
  H      2.609006    3.890233    4.479095
  H      1.682143    3.656011    2.991743
  H      4.741420    3.974341    3.157620
  H      3.607809    5.276970    2.789187
  H      2.913672    4.030096    0.705780
  H      4.618206    4.489057    0.730778

 Total Charge           Charge          ....   -2
 Multiplicity           Mult            ....    2
 Number of Electrons    NEL             ....  233
 Basis Dimension        Dim             ....  517

ORBITAL ENERGIES
----------------
                 SPIN UP ORBITALS
  NO   OCC          E(Eh)            E(eV)
   0   1.0000    -196.640488     -5350.8597
   1   1.0000     -88.685765     -2413.2623
   2   1.0000     -88.677116     -2413.0270
   3   1.0000     -88.676156     -2413.0009
   4   1.0000     -88.669822     -2412.8285
   5   1.0000     -88.613112     -2411.2854
   6   1.0000     -88.612218     -2411.2610
   7   1.0000     -88.612156     -2411.2594
   8   1.0000     -88.612150     -2411.2592
   9   1.0000     -22.016297      -599.0939
  10   1.0000     -18.857545      -513.1399
  11   1.0000     -18.523122      -504.0398
  12   1.0000     -18.517345      -503.8826
  13   1.0000     -18.517309      -503.8816
  14   1.0000     -10.021616      -272.7020
  15   1.0000     -10.019784      -272.6522
  16   1.0000     -10.015524      -272.5363
  17   1.0000     -10.015431      -272.5337
  18   1.0000     -10.013305      -272.4759
  19   1.0000     -10.004782      -272.2440
  20   1.0000      -9.992655      -271.9140
  21   1.0000      -9.992034      -271.8971
  22   1.0000      -9.991839      -271.8918
  23   1.0000      -9.991322      -271.8777
  24   1.0000      -7.739314      -210.5974
  25   1.0000      -7.730756      -210.3646
  26   1.0000      -7.729804      -210.3387
  27   1.0000      -7.723686      -210.1722
  28   1.0000      -7.667514      -208.6437
  29   1.0000      -7.666664      -208.6205
  30   1.0000      -7.666603      -208.6189
  31   1.0000      -7.666598      -208.6187
  32   1.0000      -5.704778      -155.2349
  33   1.0000      -5.700550      -155.1198
  34   1.0000      -5.696017      -154.9965
  35   1.0000      -5.695037      -154.9698
  36   1.0000      -5.693968      -154.9407
  37   1.0000      -5.692102      -154.8900
  38   1.0000      -5.691163      -154.8644
  39   1.0000      -5.688706      -154.7975
  40   1.0000      -5.685501      -154.7104
  41   1.0000      -5.685095      -154.6993
  42   1.0000      -5.684563      -154.6848
  43   1.0000      -5.678543      -154.5210
  44   1.0000      -5.632334      -153.2636
  45   1.0000      -5.631508      -153.2411
  46   1.0000      -5.631489      -153.2406
  47   1.0000      -5.631425      -153.2389
  48   1.0000      -5.625947      -153.0898
  49   1.0000      -5.625537      -153.0787
  50   1.0000      -5.625091      -153.0665
  51   1.0000      -5.625047      -153.0653
  52   1.0000      -5.625020      -153.0646
  53   1.0000      -5.624646      -153.0544
  54   1.0000      -5.624582      -153.0527
  55   1.0000      -5.624548      -153.0517
  56   1.0000      -2.409992       -65.5792
  57   1.0000      -1.451353       -39.4933
  58   1.0000      -1.439771       -39.1782
  59   1.0000      -1.438693       -39.1488
  60   1.0000      -0.645570       -17.5668
  61   1.0000      -0.643962       -17.5231
  62   1.0000      -0.618574       -16.8323
  63   1.0000      -0.594614       -16.1803
  64   1.0000      -0.593724       -16.1560
  65   1.0000      -0.577369       -15.7110
  66   1.0000      -0.576038       -15.6748
  67   1.0000      -0.492662       -13.4060
  68   1.0000      -0.490470       -13.3464
  69   1.0000      -0.487617       -13.2687
  70   1.0000      -0.486575       -13.2404
  71   1.0000      -0.424302       -11.5459
  72   1.0000      -0.421038       -11.4570
  73   1.0000      -0.412063       -11.2128
  74   1.0000      -0.406275       -11.0553
  75   1.0000      -0.375551       -10.2193
  76   1.0000      -0.371789       -10.1169
  77   1.0000      -0.294996        -8.0272
  78   1.0000      -0.292931        -7.9711
  79   1.0000      -0.277803        -7.5594
  80   1.0000      -0.276745        -7.5306
  81   1.0000      -0.261655        -7.1200
  82   1.0000      -0.256071        -6.9680
  83   1.0000      -0.245480        -6.6798
  84   1.0000      -0.240949        -6.5566
  85   1.0000      -0.197124        -5.3640
  86   1.0000      -0.194375        -5.2892
  87   1.0000      -0.191819        -5.2197
  88   1.0000      -0.184758        -5.0275
  89   1.0000      -0.182851        -4.9756
  90   1.0000      -0.180844        -4.9210
  91   1.0000      -0.172883        -4.7044
  92   1.0000      -0.152436        -4.1480
  93   1.0000      -0.150426        -4.0933
  94   1.0000      -0.145968        -3.9720
  95   1.0000      -0.142722        -3.8837
  96   1.0000      -0.131026        -3.5654
  97   1.0000      -0.097890        -2.6637
  98   1.0000      -0.096468        -2.6250
  99   1.0000      -0.088635        -2.4119
 100   1.0000      -0.083277        -2.2661
 101   1.0000      -0.080781        -2.1982
 102   1.0000      -0.080135        -2.1806
 103   1.0000      -0.069424        -1.8891
 104   1.0000      -0.050520        -1.3747
 105   1.0000      -0.040367        -1.0984
 106   1.0000      -0.037984        -1.0336
 107   1.0000      -0.036096        -0.9822
 108   1.0000      -0.031594        -0.8597
 109   1.0000      -0.013553        -0.3688
 110   1.0000      -0.004669        -0.1271
 111   1.0000      -0.003476        -0.0946
 112   1.0000       0.005832         0.1587
 113   1.0000       0.010319         0.2808
 114   1.0000       0.015896         0.4325
 115   1.0000       0.033231         0.9043
 116   1.0000       0.059392         1.6161
 117   0.0000       0.186287         5.0691
 118   0.0000       0.194032         5.2799
 119   0.0000       0.195349         5.3157
 120   0.0000       0.196405         5.3444
 121   0.0000       0.211083         5.7439

                 SPIN DOWN ORBITALS
  NO   OCC          E(Eh)            E(eV)
   0   1.0000    -196.640629     -5350.8635
   1   1.0000     -88.685778     -2413.2627
   2   1.0000     -88.677129     -2413.0274
   3   1.0000     -88.676169     -2413.0012
   4   1.0000     -88.669836     -2412.8289
   5   1.0000     -88.613272     -2411.2897
   6   1.0000     -88.612378     -2411.2654
   7   1.0000     -88.612315     -2411.2637
   8   1.0000     -88.612310     -2411.2635
   9   1.0000     -22.001626      -598.6947
  10   1.0000     -18.861132      -513.2375
  11   1.0000     -18.517990      -503.9001
  12   1.0000     -18.501852      -503.4610
  13   1.0000     -18.501174      -503.4426
  14   1.0000     -10.021613      -272.7019
  15   1.0000     -10.019780      -272.6521
  16   1.0000     -10.015520      -272.5362
  17   1.0000     -10.015428      -272.5336
  18   1.0000     -10.013305      -272.4759
  19   1.0000     -10.004782      -272.2439
  20   1.0000      -9.992400      -271.9070
  21   1.0000      -9.991779      -271.8901
  22   1.0000      -9.991586      -271.8849
  23   1.0000      -9.991069      -271.8708
  24   1.0000      -7.739327      -210.5978
  25   1.0000      -7.730770      -210.3649
  26   1.0000      -7.729818      -210.3390
  27   1.0000      -7.723700      -210.1726
  28   1.0000      -7.667662      -208.6477
  29   1.0000      -7.666812      -208.6246
  30   1.0000      -7.666751      -208.6229
  31   1.0000      -7.666745      -208.6227
  32   1.0000      -5.704793      -155.2353
  33   1.0000      -5.700570      -155.1204
  34   1.0000      -5.696034      -154.9970
  35   1.0000      -5.695054      -154.9703
  36   1.0000      -5.693984      -154.9412
  37   1.0000      -5.692122      -154.8905
  38   1.0000      -5.691183      -154.8650
  39   1.0000      -5.688724      -154.7980
  40   1.0000      -5.685518      -154.7108
  41   1.0000      -5.685115      -154.6998
  42   1.0000      -5.684581      -154.6853
  43   1.0000      -5.678561      -154.5215
  44   1.0000      -5.632506      -153.2683
  45   1.0000      -5.631680      -153.2458
  46   1.0000      -5.631660      -153.2453
  47   1.0000      -5.631596      -153.2435
  48   1.0000      -5.626335      -153.1004
  49   1.0000      -5.625677      -153.0825
  50   1.0000      -5.625482      -153.0771
  51   1.0000      -5.625439      -153.0760
  52   1.0000      -5.625408      -153.0751
  53   1.0000      -5.624781      -153.0581
  54   1.0000      -5.624718      -153.0564
  55   1.0000      -5.624680      -153.0553
  56   1.0000      -2.365802       -64.3767
  57   1.0000      -1.432515       -38.9807
  58   1.0000      -1.378354       -37.5069
  59   1.0000      -1.377713       -37.4895
  60   1.0000      -0.645521       -17.5655
  61   1.0000      -0.643912       -17.5217
  62   1.0000      -0.626259       -17.0414
  63   1.0000      -0.594423       -16.1751
  64   1.0000      -0.593520       -16.1505
  65   1.0000      -0.577363       -15.7108
  66   1.0000      -0.576032       -15.6746
  67   1.0000      -0.492681       -13.4065
  68   1.0000      -0.490500       -13.3472
  69   1.0000      -0.487626       -13.2690
  70   1.0000      -0.486599       -13.2410
  71   1.0000      -0.424546       -11.5525
  72   1.0000      -0.421344       -11.4653
  73   1.0000      -0.412075       -11.2131
  74   1.0000      -0.406371       -11.0579
  75   1.0000      -0.375517       -10.2183
  76   1.0000      -0.371804       -10.1173
  77   1.0000      -0.294977        -8.0267
  78   1.0000      -0.292914        -7.9706
  79   1.0000      -0.277782        -7.5588
  80   1.0000      -0.276732        -7.5303
  81   1.0000      -0.261427        -7.1138
  82   1.0000      -0.256020        -6.9667
  83   1.0000      -0.245461        -6.6793
  84   1.0000      -0.240858        -6.5541
  85   1.0000      -0.196936        -5.3589
  86   1.0000      -0.194135        -5.2827
  87   1.0000      -0.191753        -5.2179
  88   1.0000      -0.184675        -5.0253
  89   1.0000      -0.180958        -4.9241
  90   1.0000      -0.180763        -4.9188
  91   1.0000      -0.172538        -4.6950
  92   1.0000      -0.152102        -4.1389
  93   1.0000      -0.149836        -4.0772
  94   1.0000      -0.145741        -3.9658
  95   1.0000      -0.142537        -3.8786
  96   1.0000      -0.130811        -3.5595
  97   1.0000      -0.096892        -2.6366
  98   1.0000      -0.095493        -2.5985
  99   1.0000      -0.088835        -2.4173
 100   1.0000      -0.083127        -2.2620
 101   1.0000      -0.082334        -2.2404
 102   1.0000      -0.080199        -2.1823
 103   1.0000      -0.070599        -1.9211
 104   1.0000      -0.046483        -1.2649
 105   1.0000      -0.040107        -1.0914
 106   1.0000      -0.037597        -1.0231
 107   1.0000      -0.035177        -0.9572
 108   1.0000      -0.031423        -0.8551
 109   1.0000      -0.012641        -0.3440
 110   1.0000      -0.006017        -0.1637
 111   1.0000      -0.002497        -0.0680
 112   1.0000       0.006697         0.1822
 113   1.0000       0.011219         0.3053
 114   1.0000       0.033488         0.9112
 115   1.0000       0.058601         1.5946
 116   0.0000       0.184890         5.0311
 117   0.0000       0.187338         5.0977
 118   0.0000       0.194439         5.2910
 119   0.0000       0.195678         5.3247
 120   0.0000       0.196636         5.3507

MULLIKEN ATOMIC CHARGES AND SPIN POPULATIONS
--------------------------------------------
   0 V :    0.447673    1.199372
   1 S :   -0.253204   -0.024267
   2 S :   -0.254658   -0.023809
   3 S :   -0.254542   -0.024228
   4 S :   -0.252359   -0.024010
   5 O :   -0.506253   -0.138984
   6 C :   -0.093336    0.008728
   7 C :   -0.142047    0.008884
   8 C :   -0.117728    0.008949
   9 C :   -0.114204    0.008871
  10 S :   -0.013500   -0.000093
  11 S :   -0.078712   -0.000237
  12 S :   -0.042811   -0.000190
  13 S :   -0.046696   -0.000231
  14 C :   -0.324682    0.000240
  15 C :   -0.337631    0.000300
  16 C :   -0.311338    0.000313
  17 C :   -0.338273    0.000319
  18 C :   -0.101168    0.000119
  19 H :    0.128268   -0.000086
  20 H :    0.096183    0.000020
  21 H :    0.036049    0.000054
  22 H :    0.076797   -0.000007
  23 H :    0.097706    0.000020
  24 H :    0.164215   -0.000070
  25 C :   -0.084046    0.000135
  26 H :    0.101734    0.000029
  27 H :    0.148037   -0.000110
  28 H :    0.078416    0.000011
  29 H :    0.044493    0.000035
  30 H :    0.146013   -0.000105
  31 H :    0.101605    0.000027
Sum of atomic charges         :   -2.0000000

LOEWDIN ATOMIC CHARGES AND SPIN POPULATIONS
-------------------------------------------
   0 V :   -0.242787    1.153359
   1 S :    0.088630   -0.016441
   2 S :    0.086636   -0.016106
   3 S :    0.087494   -0.016388
   4 S :    0.090808   -0.016315
   5 O :   -0.350732   -0.124414
   6 C :   -0.554317    0.009996
   7 C :   -0.552297    0.009949
   8 C :   -0.552497    0.009986
   9 C :   -0.553063    0.009963
  10 S :    0.373298   -0.000966
  11 S :    0.302154   -0.001103
  12 S :    0.338834   -0.001037
  13 S :    0.334662   -0.001063
  14 C :   -0.293153    0.000190
  15 C :   -0.294613    0.000166
  16 C :   -0.318333    0.000143
  17 C :   -0.292955    0.000181
  18 C :   -0.199611   -0.000045
  19 H :    0.065576   -0.000036
  20 H :    0.051604   -0.000002
  21 H :    0.058911    0.000025
  22 H :    0.055973    0.000008
  23 H :    0.048256    0.000013
  24 H :    0.079602   -0.000016
  25 C :   -0.184900   -0.000039
  26 H :    0.047218    0.000010
  27 H :    0.066342   -0.000027
  28 H :    0.053431    0.000011
  29 H :    0.046838    0.000018
  30 H :    0.065612   -0.000027
  31 H :    0.047378    0.000008

  Mayer bond orders larger than 0.100000
B(  0-V ,  1-S ) :   0.7894 B(  0-V ,  2-S ) :   0.7896 B(  0-V ,  3-S ) :   0.7908
B(  0-V ,  4-S ) :   0.7866 B(  0-V ,  5-O ) :   2.1083 B(  1-S ,  8-C ) :   1.1382
B(  2-S ,  6-C ) :   1.1338 B(  3-S ,  9-C ) :   1.1363 B(  4-S ,  7-C ) :   1.1387
B(  6-C ,  7-C ) :   1.5079 B(  6-C , 10-S ) :   0.9246 B(  7-C , 11-S ) :   0.9839
B(  8-C ,  9-C ) :   1.5179 B(  8-C , 13-S ) :   0.9556 B(  9-C , 12-S ) :   0.9520
B( 10-S , 16-C ) :   1.0112 B( 11-S , 14-C ) :   0.9642 B( 12-S , 15-C ) :   1.0065
B( 13-S , 17-C ) :   1.0040 B( 14-C , 18-C ) :   0.8957 B( 14-C , 23-H ) :   0.9764
B( 14-C , 24-H ) :   0.9656 B( 15-C , 25-C ) :   0.8769 B( 15-C , 30-H ) :   0.9754
B( 15-C , 31-H ) :   0.9695 B( 16-C , 18-C ) :   0.8644 B( 16-C , 19-H ) :   0.9723
B( 16-C , 20-H ) :   0.9603 B( 17-C , 25-C ) :   0.8790 B( 17-C , 26-H ) :   0.9707
B( 17-C , 27-H ) :   0.9748 B( 18-C , 21-H ) :   0.9534 B( 18-C , 22-H ) :   0.9669
B( 25-C , 28-H ) :   0.9739 B( 25-C , 29-H ) :   0.9527

FINAL SINGLE POINT ENERGY     -4592.686685814228

DIPOLE MOMENT
-------------
                                X             Y             Z
Electronic contribution:     11.08220     -24.19335       2.76475
Nuclear contribution   :    -12.28656      26.93228      -3.00658
                        -----------------------------------------
Total Dipole Moment    :     -1.20437       2.73893      -0.24183
                        -----------------------------------------
Magnitude (a.u.)       :      3.00178
Magnitude (Debye)      :      7.62993

Rotational constants in cm-1:     0.012769     0.002548     0.002431
Rotational constants in MHz :   382.798054    76.398087    72.881648

                             ****ORCA TERMINATED NORMALLY****
TOTAL RUN TIME: 0 days 0 hours 27 minutes 47 seconds 294 msec
