                         Program Version 5.0.4 -  RELEASE  -
|  1> ! nofrozencore ReducedPop printbasis
|  2> ! B3LYP TZVP
|  3>
|  4> %basis
|  5> newgto V "CP(PPP)" end
|  6> end
|  7>
|  8> %pal
|  9> nprocs 4
| 10> end
| 11>
| 12> % sym SymThresh 1e-2 end
| 13> * xyz -2 2
| 14> V -1.0595525350899764 -0.31485594705986103 -0.1494628832568211
| 15> S -0.9208887055684251 0.8240138833767966 2.016013785682975
| 16> S -0.7863793567661457 1.9091216364118 -1.1378687914757102
| 17> S 0.10145592359161712 -2.113904169748072 1.039912794110587
| 18> S 0.20647772292237856 -1.0369333797343356 -2.1200622753095053
| 19> O -2.5774339969988502 -0.7641945836602063 -0.3577690075103405
| 20> C -0.28090697022785727 1.5817559872987748 -2.800341963649955
| 21> C 0.13434471905354956 0.35374235613801 -3.2092117188450424
| 22> C -0.5233822850417388 -0.4698238007623617 3.1529133866414245
| 23> C -0.09733032009448785 -1.6950462927530963 2.7463975406789323
| 24> S -0.3309389701131399 3.0101194718557123 -3.9013248979217994
| 25> S 0.6849753920559267 0.02376190365669987 -4.895402816729022
| 26> S 0.34542605066778037 -3.00642646208324 3.9037135652958344
| 27> S -0.6928212011180878 -0.025919347693297026 4.893822397357758
| 28> C 2.2468782799062237 1.0001017995888752 -5.018276414340758
| 29> C 1.890984440579868 -2.3641721561623084 4.712443065377523
| 30> C 1.4554977771622002 3.3357168749142163 -4.24359562754363
| 31> C 1.0464785324466725 -0.04318227213367814 5.475300331431201
| 32> C 2.0940512930541266 2.4842378348542224 -5.3422924145916175
| 33> H 1.9812148006301507 3.223016805584237 -3.3144462300202746
| 34> H 1.4963197116356524 4.356651652520197 -4.519793436849701
| 35> H 3.0976730971367474 2.8925971391720933 -5.543085848988688
| 36> H 1.5148749488155633 2.5937400985558803 -6.265533180386038
| 37> H 2.8360248156912267 0.4958254134846085 -5.83908751169456
| 38> H 2.799987358027894 0.8531379954651114 -4.067108632139391
| 39> C 1.6444751403597726 -1.372049449278041 5.871719400727569
| 40> H 1.0353236346902006 0.8750795615492196 6.694289111764871
| 41> H 1.7690428150408486 0.5612210289910696 4.559527636917618
| 42> H 1.001472991483855 -1.8462189929086248 6.621205014115922
| 43> H 2.621701989989002 -1.1947429848185696 6.353317918711806
| 44> H 2.3687712184106133 -1.9834092041516391 4.0832688540646025
| 45> H 2.212563576038009 -2.911495254515366 4.946708747124132
| 46> *
| 47>
| 48> % eprnmr
| 49> gtensor true
| 50> Nuclei = all H {aiso,adip,aorb,fgrad,rho}
| 51> Nuclei = all V {aiso,adip,aorb,fgrad,rho}
| 52> end
| 53>
| 54>                          ****END OF INPUT****

CARTESIAN COORDINATES (ANGSTROEM)
---------------------------------
  V     -1.060676   -0.315158   -0.149697
  S     -0.922012    0.823712    2.015780
  S     -0.787503    1.908820   -1.138102
  S      0.100332   -2.114206    1.039679
  S      0.205354   -1.037235   -2.120296
  O     -2.578558   -0.764497   -0.358003
  C     -0.282031    1.581454   -2.800576
  C      0.133221    0.353440   -3.209445
  C     -0.524506   -0.470126    3.152680
  C     -0.098454   -1.695348    2.746164
  S     -0.332063    3.009817   -3.901559
  S      0.683852    0.023460   -4.895636
  S      0.344302   -3.006728    3.903480
  S     -0.693945   -0.026221    4.893589
  C      2.245755    0.999800   -5.018510
  C      1.889861   -2.364474    4.712209
  C      1.454374    3.335415   -4.243829
  C      1.045355   -0.043484    5.475067
  C      2.092928    2.483936   -5.342526
  H      1.980091    3.222715   -3.314680
  H      1.495196    4.356350   -4.520027
  H      3.096549    2.892295   -5.543320
  H      1.513751    2.593438   -6.265767
  H      2.834901    0.495523   -5.839321
  H      2.798864    0.852836   -4.067342
  C      1.643352   -1.372351    5.871486
  H      1.034200    0.874778    6.694055
  H      1.767919    0.560919    4.559294
  H      1.000349   -1.846521    6.620971
  H      2.620578   -1.195045    6.353084
  H      2.367648   -1.983711    4.083035
  H      2.211440   -2.911797    4.946475

 Total Charge           Charge          ....   -2
 Multiplicity           Mult            ....    2
 Number of Electrons    NEL             ....  233
 Basis Dimension        Dim             ....  517

ORBITAL ENERGIES
----------------
                 SPIN UP ORBITALS
  NO   OCC          E(Eh)            E(eV)
   0   1.0000    -196.642034     -5350.9018
   1   1.0000     -88.682949     -2413.1857
   2   1.0000     -88.678261     -2413.0582
   3   1.0000     -88.677857     -2413.0472
   4   1.0000     -88.677318     -2413.0325
   5   1.0000     -88.615302     -2411.3450
   6   1.0000     -88.614120     -2411.3128
   7   1.0000     -88.613487     -2411.2956
   8   1.0000     -88.613453     -2411.2947
   9   1.0000     -22.017843      -599.1360
  10   1.0000     -18.859075      -513.1815
  11   1.0000     -18.524670      -504.0819
  12   1.0000     -18.518892      -503.9247
  13   1.0000     -18.518855      -503.9237
  14   1.0000     -10.066930      -273.9351
  15   1.0000     -10.021355      -272.6949
  16   1.0000     -10.010898      -272.4104
  17   1.0000     -10.009175      -272.3635
  18   1.0000     -10.005514      -272.2639
  19   1.0000      -9.996081      -272.0072
  20   1.0000      -9.994534      -271.9651
  21   1.0000      -9.993131      -271.9269
  22   1.0000      -9.992420      -271.9076
  23   1.0000      -9.964444      -271.1463
  24   1.0000      -7.736159      -210.5116
  25   1.0000      -7.731951      -210.3971
  26   1.0000      -7.731462      -210.3838
  27   1.0000      -7.730980      -210.3707
  28   1.0000      -7.669711      -208.7034
  29   1.0000      -7.668572      -208.6725
  30   1.0000      -7.667908      -208.6544
  31   1.0000      -7.667876      -208.6535
  32   1.0000      -5.701510      -155.1460
  33   1.0000      -5.697493      -155.0367
  34   1.0000      -5.697127      -155.0267
  35   1.0000      -5.696712      -155.0154
  36   1.0000      -5.696219      -155.0020
  37   1.0000      -5.693344      -154.9238
  38   1.0000      -5.692821      -154.9095
  39   1.0000      -5.692337      -154.8964
  40   1.0000      -5.690858      -154.8561
  41   1.0000      -5.686737      -154.7440
  42   1.0000      -5.686207      -154.7296
  43   1.0000      -5.685734      -154.7167
  44   1.0000      -5.634551      -153.3239
  45   1.0000      -5.633453      -153.2940
  46   1.0000      -5.632743      -153.2747
  47   1.0000      -5.632708      -153.2738
  48   1.0000      -5.628135      -153.1493
  49   1.0000      -5.627713      -153.1378
  50   1.0000      -5.626983      -153.1180
  51   1.0000      -5.626516      -153.1053
  52   1.0000      -5.626358      -153.1010
  53   1.0000      -5.626337      -153.1004
  54   1.0000      -5.625893      -153.0883
  55   1.0000      -5.625855      -153.0873
  56   1.0000      -2.411531       -65.6211
  57   1.0000      -1.452890       -39.5351
  58   1.0000      -1.441321       -39.2204
  59   1.0000      -1.440238       -39.1909
  60   1.0000      -0.664721       -18.0880
  61   1.0000      -0.644891       -17.5484
  62   1.0000      -0.620114       -16.8742
  63   1.0000      -0.607637       -16.5346
  64   1.0000      -0.594925       -16.1887
  65   1.0000      -0.581137       -15.8136
  66   1.0000      -0.576861       -15.6972
  67   1.0000      -0.508492       -13.8368
  68   1.0000      -0.492756       -13.4086
  69   1.0000      -0.490825       -13.3560
  70   1.0000      -0.488359       -13.2889
  71   1.0000      -0.441147       -12.0042
  72   1.0000      -0.423254       -11.5173
  73   1.0000      -0.411641       -11.2013
  74   1.0000      -0.401190       -10.9169
  75   1.0000      -0.376075       -10.2335
  76   1.0000      -0.371642       -10.1129
  77   1.0000      -0.329138        -8.9563
  78   1.0000      -0.294157        -8.0044
  79   1.0000      -0.279538        -7.6066
  80   1.0000      -0.278608        -7.5813
  81   1.0000      -0.261957        -7.1282
  82   1.0000      -0.256767        -6.9870
  83   1.0000      -0.242172        -6.5898
  84   1.0000      -0.239125        -6.5069
  85   1.0000      -0.209723        -5.7068
  86   1.0000      -0.196242        -5.3400
  87   1.0000      -0.193670        -5.2700
  88   1.0000      -0.192440        -5.2365
  89   1.0000      -0.185043        -5.0353
  90   1.0000      -0.183026        -4.9804
  91   1.0000      -0.158886        -4.3235
  92   1.0000      -0.153656        -4.1812
  93   1.0000      -0.150277        -4.0892
  94   1.0000      -0.146435        -3.9847
  95   1.0000      -0.143783        -3.9125
  96   1.0000      -0.136661        -3.7187
  97   1.0000      -0.099381        -2.7043
  98   1.0000      -0.097359        -2.6493
  99   1.0000      -0.091584        -2.4921
 100   1.0000      -0.085664        -2.3310
 101   1.0000      -0.082598        -2.2476
 102   1.0000      -0.082072        -2.2333
 103   1.0000      -0.071721        -1.9516
 104   1.0000      -0.052055        -1.4165
 105   1.0000      -0.040292        -1.0964
 106   1.0000      -0.039975        -1.0878
 107   1.0000      -0.037589        -1.0229
 108   1.0000      -0.033904        -0.9226
 109   1.0000      -0.015098        -0.4108
 110   1.0000      -0.006512        -0.1772
 111   1.0000      -0.005242        -0.1426
 112   1.0000       0.004228         0.1151
 113   1.0000       0.008661         0.2357
 114   1.0000       0.014329         0.3899
 115   1.0000       0.031455         0.8559
 116   1.0000       0.057652         1.5688
 117   0.0000       0.160863         4.3773
 118   0.0000       0.188453         5.1281
 119   0.0000       0.195439         5.3182
 120   0.0000       0.196337         5.3426
 121   0.0000       0.207480         5.6458

                 SPIN DOWN ORBITALS
  NO   OCC          E(Eh)            E(eV)
   0   1.0000    -196.642175     -5350.9056
   1   1.0000     -88.682962     -2413.1861
   2   1.0000     -88.678274     -2413.0585
   3   1.0000     -88.677870     -2413.0475
   4   1.0000     -88.677331     -2413.0329
   5   1.0000     -88.615461     -2411.3493
   6   1.0000     -88.614278     -2411.3171
   7   1.0000     -88.613648     -2411.2999
   8   1.0000     -88.613614     -2411.2990
   9   1.0000     -22.003174      -598.7368
  10   1.0000     -18.862664      -513.2792
  11   1.0000     -18.519538      -503.9422
  12   1.0000     -18.503405      -503.5032
  13   1.0000     -18.502719      -503.4846
  14   1.0000     -10.066926      -273.9350
  15   1.0000     -10.021351      -272.6948
  16   1.0000     -10.010894      -272.4103
  17   1.0000     -10.009175      -272.3635
  18   1.0000     -10.005514      -272.2639
  19   1.0000      -9.995825      -272.0002
  20   1.0000      -9.994281      -271.9582
  21   1.0000      -9.992876      -271.9200
  22   1.0000      -9.992168      -271.9007
  23   1.0000      -9.964440      -271.1462
  24   1.0000      -7.736173      -210.5120
  25   1.0000      -7.731965      -210.3975
  26   1.0000      -7.731476      -210.3842
  27   1.0000      -7.730994      -210.3710
  28   1.0000      -7.669859      -208.7075
  29   1.0000      -7.668719      -208.6765
  30   1.0000      -7.668057      -208.6584
  31   1.0000      -7.668026      -208.6576
  32   1.0000      -5.701527      -155.1464
  33   1.0000      -5.697513      -155.0372
  34   1.0000      -5.697144      -155.0272
  35   1.0000      -5.696729      -155.0159
  36   1.0000      -5.696236      -155.0025
  37   1.0000      -5.693365      -154.9243
  38   1.0000      -5.692841      -154.9101
  39   1.0000      -5.692357      -154.8969
  40   1.0000      -5.690873      -154.8565
  41   1.0000      -5.686754      -154.7444
  42   1.0000      -5.686224      -154.7300
  43   1.0000      -5.685750      -154.7171
  44   1.0000      -5.634721      -153.3286
  45   1.0000      -5.633623      -153.2987
  46   1.0000      -5.632915      -153.2794
  47   1.0000      -5.632881      -153.2785
  48   1.0000      -5.628517      -153.1597
  49   1.0000      -5.627853      -153.1417
  50   1.0000      -5.627371      -153.1286
  51   1.0000      -5.626752      -153.1117
  52   1.0000      -5.626730      -153.1111
  53   1.0000      -5.626648      -153.1089
  54   1.0000      -5.626028      -153.0920
  55   1.0000      -5.625992      -153.0910
  56   1.0000      -2.367348       -64.4188
  57   1.0000      -1.434052       -39.0225
  58   1.0000      -1.379918       -37.5495
  59   1.0000      -1.379256       -37.5315
  60   1.0000      -0.664702       -18.0875
  61   1.0000      -0.644842       -17.5470
  62   1.0000      -0.627786       -17.0829
  63   1.0000      -0.607467       -16.5300
  64   1.0000      -0.594728       -16.1834
  65   1.0000      -0.581091       -15.8123
  66   1.0000      -0.576855       -15.6970
  67   1.0000      -0.508462       -13.8359
  68   1.0000      -0.492781       -13.4093
  69   1.0000      -0.490863       -13.3571
  70   1.0000      -0.488373       -13.2893
  71   1.0000      -0.441413       -12.0115
  72   1.0000      -0.423532       -11.5249
  73   1.0000      -0.411682       -11.2024
  74   1.0000      -0.401281       -10.9194
  75   1.0000      -0.376061       -10.2331
  76   1.0000      -0.371651       -10.1131
  77   1.0000      -0.329129        -8.9561
  78   1.0000      -0.294140        -8.0039
  79   1.0000      -0.279509        -7.6058
  80   1.0000      -0.278589        -7.5808
  81   1.0000      -0.261742        -7.1224
  82   1.0000      -0.256720        -6.9857
  83   1.0000      -0.242080        -6.5873
  84   1.0000      -0.239069        -6.5054
  85   1.0000      -0.209649        -5.7048
  86   1.0000      -0.195769        -5.3271
  87   1.0000      -0.193601        -5.2681
  88   1.0000      -0.192370        -5.2347
  89   1.0000      -0.184949        -5.0327
  90   1.0000      -0.181072        -4.9272
  91   1.0000      -0.158687        -4.3181
  92   1.0000      -0.153147        -4.1673
  93   1.0000      -0.149921        -4.0796
  94   1.0000      -0.146220        -3.9788
  95   1.0000      -0.143590        -3.9073
  96   1.0000      -0.136445        -3.7129
  97   1.0000      -0.097972        -2.6659
  98   1.0000      -0.096774        -2.6334
  99   1.0000      -0.091693        -2.4951
 100   1.0000      -0.085649        -2.3306
 101   1.0000      -0.083958        -2.2846
 102   1.0000      -0.082191        -2.2365
 103   1.0000      -0.073026        -1.9871
 104   1.0000      -0.047940        -1.3045
 105   1.0000      -0.040349        -1.0979
 106   1.0000      -0.039289        -1.0691
 107   1.0000      -0.036594        -0.9958
 108   1.0000      -0.033858        -0.9213
 109   1.0000      -0.014192        -0.3862
 110   1.0000      -0.007748        -0.2108
 111   1.0000      -0.004347        -0.1183
 112   1.0000       0.005073         0.1381
 113   1.0000       0.009567         0.2603
 114   1.0000       0.031703         0.8627
 115   1.0000       0.056859         1.5472
 116   0.0000       0.160777         4.3750
 117   0.0000       0.183435         4.9915
 118   0.0000       0.189764         5.1637
 119   0.0000       0.195798         5.3279
 120   0.0000       0.196899         5.3579

MULLIKEN ATOMIC CHARGES AND SPIN POPULATIONS
--------------------------------------------
   0 V :    0.446617    1.199376
   1 S :   -0.248377   -0.023825
   2 S :   -0.252143   -0.024377
   3 S :   -0.248402   -0.023866
   4 S :   -0.254158   -0.024262
   5 O :   -0.505311   -0.139077
   6 C :   -0.116005    0.008884
   7 C :   -0.116523    0.008905
   8 C :   -0.132124    0.008855
   9 C :   -0.105316    0.008917
  10 S :   -0.046487   -0.000178
  11 S :   -0.041535   -0.000194
  12 S :   -0.065714   -0.000233
  13 S :   -0.006877   -0.000120
  14 C :   -0.333031    0.000278
  15 C :   -0.470037    0.000370
  16 C :   -0.344433    0.000274
  17 C :   -0.259764    0.000280
  18 C :   -0.084429    0.000140
  19 H :    0.149872   -0.000101
  20 H :    0.111931    0.000020
  21 H :    0.045157    0.000039
  22 H :    0.078817    0.000017
  23 H :    0.093074    0.000023
  24 H :    0.144392   -0.000103
  25 C :   -0.093040    0.000169
  26 H :   -0.023149    0.000014
  27 H :    0.109512   -0.000141
  28 H :    0.083071    0.000009
  29 H :    0.051009    0.000032
  30 H :    0.183334   -0.000118
  31 H :    0.250072   -0.000008
Sum of atomic charges         :   -2.0000000

LOEWDIN ATOMIC CHARGES AND SPIN POPULATIONS
-------------------------------------------
   0 V :   -0.242685    1.153347
   1 S :    0.090785   -0.016123
   2 S :    0.089305   -0.016527
   3 S :    0.092579   -0.016109
   4 S :    0.087798   -0.016461
   5 O :   -0.350062   -0.124506
   6 C :   -0.552458    0.010011
   7 C :   -0.553136    0.009955
   8 C :   -0.555673    0.009921
   9 C :   -0.546205    0.010070
  10 S :    0.337042   -0.001034
  11 S :    0.337445   -0.001039
  12 S :    0.343383   -0.001060
  13 S :    0.353338   -0.000974
  14 C :   -0.299289    0.000164
  15 C :   -0.139484    0.000164
  16 C :   -0.286670    0.000157
  17 C :   -0.315559    0.000171
  18 C :   -0.184608   -0.000037
  19 H :    0.063286   -0.000025
  20 H :    0.042418    0.000004
  21 H :    0.046980    0.000018
  22 H :    0.053530    0.000013
  23 H :    0.051149    0.000006
  24 H :    0.068477   -0.000029
  25 C :   -0.172212   -0.000034
  26 H :    0.022883    0.000000
  27 H :    0.085312   -0.000072
  28 H :    0.056554    0.000011
  29 H :    0.050918    0.000017
  30 H :    0.032371   -0.000005
  31 H :   -0.107512    0.000008

  Mayer bond orders larger than 0.100000
B(  0-V ,  1-S ) :   0.7874 B(  0-V ,  2-S ) :   0.7931 B(  0-V ,  3-S ) :   0.7859
B(  0-V ,  4-S ) :   0.7901 B(  0-V ,  5-O ) :   2.1090 B(  1-S ,  8-C ) :   1.1368
B(  2-S ,  6-C ) :   1.1374 B(  3-S ,  9-C ) :   1.1451 B(  4-S ,  7-C ) :   1.1363
B(  6-C ,  7-C ) :   1.5177 B(  6-C , 10-S ) :   0.9547 B(  7-C , 11-S ) :   0.9539
B(  8-C ,  9-C ) :   1.5051 B(  8-C , 13-S ) :   0.9540 B(  9-C , 12-S ) :   0.9561
B( 10-S , 16-C ) :   1.0029 B( 11-S , 14-C ) :   1.0066 B( 12-S , 15-C ) :   0.9483
B( 13-S , 17-C ) :   1.0101 B( 14-C , 18-C ) :   0.8803 B( 14-C , 23-H ) :   0.9684
B( 14-C , 24-H ) :   0.9732 B( 15-C , 25-C ) :   0.8282 B( 15-C , 30-H ) :   0.9968
B( 15-C , 31-H ) :   0.9602 B( 16-C , 18-C ) :   0.8756 B( 16-C , 19-H ) :   0.9772
B( 16-C , 20-H ) :   0.9714 B( 17-C , 25-C ) :   0.9107 B( 17-C , 26-H ) :   0.9145
B( 17-C , 27-H ) :   0.9427 B( 18-C , 21-H ) :   0.9528 B( 18-C , 22-H ) :   0.9737
B( 25-C , 28-H ) :   0.9709 B( 25-C , 29-H ) :   0.9526

FINAL SINGLE POINT ENERGY     -4592.343668494138

DIPOLE MOMENT
-------------
                                X             Y             Z
Electronic contribution:    -25.23455      -8.29330      -4.11657
Nuclear contribution   :     28.09964       8.88060       4.17002
                        -----------------------------------------
Total Dipole Moment    :      2.86509       0.58730       0.05346
                        -----------------------------------------
Magnitude (a.u.)       :      2.92516
Magnitude (Debye)      :      7.43515

Rotational constants in cm-1:     0.012769     0.002548     0.002431
Rotational constants in MHz :   382.799269    76.396426    72.879671

                             ****ORCA TERMINATED NORMALLY****
TOTAL RUN TIME: 0 days 0 hours 43 minutes 16 seconds 149 msec
