                         Program Version 5.0.4 -  RELEASE  -
|  1> ! nofrozencore ReducedPop printbasis
|  2> ! B3LYP TZVP
|  3>
|  4> %basis
|  5> newgto V "CP(PPP)" end
|  6> end
|  7>
|  8> %pal
|  9> nprocs 4
| 10> end
| 11>
| 12> % sym SymThresh 1e-2 end
| 13> * xyz -2 2
| 14> V -0.9751241341766462 -0.6758362312462155 0.06883461197070986
| 15> S -1.6091379405120796 1.51006946349302 -0.8518079212019832
| 16> S 0.09551554349932244 -1.0643182209083017 -2.105000115084704
| 17> S -0.7600899269345046 0.6019625000958463 2.153366611916108
| 18> S 0.9266346325477413 -1.988293940753839 0.9003428074937244
| 19> O -2.2901783316091184 -1.5791380614474544 0.15981218044958928
| 20> C 1.3108630351511197 -2.319374145608553 -1.8027139430217392
| 21> C 1.658663681787045 -2.7048233100007724 -0.5465500575931806
| 22> C -1.902242069423641 2.5345692524465964 0.5645006671565257
| 23> C -1.5467229773355027 2.155579845359819 1.8206179011541481
| 24> S 1.986962723108778 -3.068557113412699 -3.29815464496974
| 25> S 2.8476768067878027 -4.01691897464297 -0.2008668952492796
| 26> S -1.8731274013703592 3.1492837504737587 3.2906028695809617
| 27> S -2.753791410840873 4.08184760885487 0.19465442897045118
| 28> C 4.4554010006998475 -3.4063123274221185 -0.8843298740056823
| 29> C -0.8876636119403792 4.696877851710522 3.053667632873804
| 30> C 3.7957917388122446 -2.6803783462219988 -3.2605818796797514
| 31> C -1.5653850981273496 5.413955621471594 0.6787296530275905
| 32> C 4.664229866380705 -3.587387762059126 -2.3881632981885157
| 33> H 3.905331133123686 -1.630915189330248 -2.9657572171060704
| 34> H 4.109466599951343 -2.769549308307011 -4.305956573467678
| 35> H 5.725668719007467 -3.370634039810426 -2.6166277235915016
| 36> H 4.483632673976768 -4.638469376512457 -2.659174255813838
| 37> H 5.212441337246171 -3.979400524897889 -0.33874902168972965
| 38> H 4.560359616730028 -2.354014944315812 -0.5980040246493077
| 39> C -1.5167456670561046 5.769852426713866 2.164643049608094
| 40> H -1.8954843176184137 6.286575294074057 0.10525522881709423
| 41> H -0.5745074687353374 5.126353943120104 0.310402462136295
| 42> H -2.533994295192081 5.9898524538607445 2.521488330002619
| 43> H -0.9254588213256845 6.698977833556332 2.2762304928801407
| 44> H 0.10115970544285979 4.407947457598222 2.681079725423339
| 45> H -0.7616261252594546 5.090784493364663 4.067592394004486
| 46> *
| 47>
| 48> % eprnmr
| 49> gtensor true
| 50> Nuclei = all H {aiso,adip,aorb,fgrad,rho}
| 51> Nuclei = all V {aiso,adip,aorb,fgrad,rho}
| 52> end
| 53>
| 54>                          ****END OF INPUT****

CARTESIAN COORDINATES (ANGSTROEM)
---------------------------------
  V     -0.976056   -0.676571    0.068866
  S     -1.610070    1.509335   -0.851776
  S      0.094584   -1.065053   -2.104968
  S     -0.761022    0.601228    2.153398
  S      0.925703   -1.989028    0.900375
  O     -2.291110   -1.579873    0.159844
  C      1.309931   -2.320109   -1.802682
  C      1.657732   -2.705558   -0.546518
  C     -1.903174    2.533835    0.564533
  C     -1.547655    2.154845    1.820650
  S      1.986031   -3.069292   -3.298123
  S      2.846745   -4.017653   -0.200835
  S     -1.874059    3.148549    3.290635
  S     -2.754723    4.081113    0.194686
  C      4.454469   -3.407047   -0.884298
  C     -0.888595    4.696143    3.053699
  C      3.794860   -2.681113   -3.260550
  C     -1.566317    5.413221    0.678762
  C      4.663298   -3.588122   -2.388131
  H      3.904399   -1.631650   -2.965725
  H      4.108535   -2.770284   -4.305925
  H      5.724737   -3.371369   -2.616596
  H      4.482701   -4.639204   -2.659142
  H      5.211510   -3.980135   -0.338717
  H      4.559428   -2.354749   -0.597972
  C     -1.517677    5.769118    2.164675
  H     -1.896416    6.285841    0.105287
  H     -0.575439    5.125619    0.310434
  H     -2.534926    5.989118    2.521520
  H     -0.926390    6.698243    2.276262
  H      0.100228    4.407213    2.681112
  H     -0.762558    5.090050    4.067624

 Total Charge           Charge          ....   -2
 Multiplicity           Mult            ....    2
 Number of Electrons    NEL             ....  233
 Basis Dimension        Dim             ....  517

ORBITAL ENERGIES
----------------
                 SPIN UP ORBITALS
  NO   OCC          E(Eh)            E(eV)
   0   1.0000    -196.641365     -5350.8836
   1   1.0000     -88.678376     -2413.0613
   2   1.0000     -88.678309     -2413.0595
   3   1.0000     -88.678198     -2413.0565
   4   1.0000     -88.678171     -2413.0557
   5   1.0000     -88.611971     -2411.2543
   6   1.0000     -88.611918     -2411.2529
   7   1.0000     -88.611887     -2411.2520
   8   1.0000     -88.611828     -2411.2504
   9   1.0000     -22.017108      -599.1160
  10   1.0000     -18.857513      -513.1390
  11   1.0000     -18.523946      -504.0622
  12   1.0000     -18.518166      -503.9049
  13   1.0000     -18.518125      -503.9038
  14   1.0000     -10.017885      -272.6005
  15   1.0000     -10.017871      -272.6001
  16   1.0000     -10.017727      -272.5962
  17   1.0000     -10.017700      -272.5955
  18   1.0000     -10.007145      -272.3083
  19   1.0000     -10.006979      -272.3037
  20   1.0000      -9.992596      -271.9124
  21   1.0000      -9.992529      -271.9105
  22   1.0000      -9.991880      -271.8929
  23   1.0000      -9.991819      -271.8912
  24   1.0000      -7.731791      -210.3927
  25   1.0000      -7.731745      -210.3915
  26   1.0000      -7.731663      -210.3892
  27   1.0000      -7.731631      -210.3884
  28   1.0000      -7.666245      -208.6091
  29   1.0000      -7.666216      -208.6083
  30   1.0000      -7.666210      -208.6082
  31   1.0000      -7.666148      -208.6065
  32   1.0000      -5.697089      -155.0257
  33   1.0000      -5.697046      -155.0245
  34   1.0000      -5.696961      -155.0222
  35   1.0000      -5.696926      -155.0212
  36   1.0000      -5.693076      -154.9165
  37   1.0000      -5.693025      -154.9151
  38   1.0000      -5.692939      -154.9127
  39   1.0000      -5.692919      -154.9122
  40   1.0000      -5.686591      -154.7400
  41   1.0000      -5.686541      -154.7387
  42   1.0000      -5.686453      -154.7363
  43   1.0000      -5.686419      -154.7353
  44   1.0000      -5.631156      -153.2316
  45   1.0000      -5.631125      -153.2307
  46   1.0000      -5.631122      -153.2306
  47   1.0000      -5.631052      -153.2287
  48   1.0000      -5.624678      -153.0553
  49   1.0000      -5.624641      -153.0543
  50   1.0000      -5.624626      -153.0538
  51   1.0000      -5.624572      -153.0524
  52   1.0000      -5.624200      -153.0423
  53   1.0000      -5.624170      -153.0415
  54   1.0000      -5.624161      -153.0412
  55   1.0000      -5.624103      -153.0396
  56   1.0000      -2.410525       -65.5937
  57   1.0000      -1.451685       -39.5023
  58   1.0000      -1.440473       -39.1973
  59   1.0000      -1.439002       -39.1572
  60   1.0000      -0.643682       -17.5155
  61   1.0000      -0.643622       -17.5139
  62   1.0000      -0.618665       -16.8347
  63   1.0000      -0.594082       -16.1658
  64   1.0000      -0.593642       -16.1538
  65   1.0000      -0.575967       -15.6729
  66   1.0000      -0.575884       -15.6706
  67   1.0000      -0.491318       -13.3694
  68   1.0000      -0.489519       -13.3205
  69   1.0000      -0.488345       -13.2886
  70   1.0000      -0.487186       -13.2570
  71   1.0000      -0.422847       -11.5062
  72   1.0000      -0.419767       -11.4225
  73   1.0000      -0.412820       -11.2334
  74   1.0000      -0.407737       -11.0951
  75   1.0000      -0.377867       -10.2823
  76   1.0000      -0.374521       -10.1912
  77   1.0000      -0.294205        -8.0057
  78   1.0000      -0.294001        -8.0002
  79   1.0000      -0.279173        -7.5967
  80   1.0000      -0.278897        -7.5892
  81   1.0000      -0.261228        -7.1084
  82   1.0000      -0.256353        -6.9757
  83   1.0000      -0.243864        -6.6359
  84   1.0000      -0.241190        -6.5631
  85   1.0000      -0.195181        -5.3111
  86   1.0000      -0.193223        -5.2579
  87   1.0000      -0.192221        -5.2306
  88   1.0000      -0.192058        -5.2262
  89   1.0000      -0.186896        -5.0857
  90   1.0000      -0.186461        -5.0739
  91   1.0000      -0.180344        -4.9074
  92   1.0000      -0.150694        -4.1006
  93   1.0000      -0.148418        -4.0387
  94   1.0000      -0.143878        -3.9151
  95   1.0000      -0.142349        -3.8735
  96   1.0000      -0.141997        -3.8639
  97   1.0000      -0.097653        -2.6573
  98   1.0000      -0.096599        -2.6286
  99   1.0000      -0.088801        -2.4164
 100   1.0000      -0.084986        -2.3126
 101   1.0000      -0.081930        -2.2294
 102   1.0000      -0.080366        -2.1869
 103   1.0000      -0.071802        -1.9538
 104   1.0000      -0.049169        -1.3380
 105   1.0000      -0.038670        -1.0523
 106   1.0000      -0.036175        -0.9844
 107   1.0000      -0.034922        -0.9503
 108   1.0000      -0.034596        -0.9414
 109   1.0000      -0.013995        -0.3808
 110   1.0000      -0.004319        -0.1175
 111   1.0000      -0.003494        -0.0951
 112   1.0000       0.006515         0.1773
 113   1.0000       0.010696         0.2910
 114   1.0000       0.014981         0.4077
 115   1.0000       0.034464         0.9378
 116   1.0000       0.060961         1.6588
 117   0.0000       0.187681         5.1070
 118   0.0000       0.195609         5.3228
 119   0.0000       0.195809         5.3282
 120   0.0000       0.196667         5.3516
 121   0.0000       0.210547         5.7293

                 SPIN DOWN ORBITALS
  NO   OCC          E(Eh)            E(eV)
   0   1.0000    -196.641505     -5350.8874
   1   1.0000     -88.678389     -2413.0617
   2   1.0000     -88.678322     -2413.0598
   3   1.0000     -88.678211     -2413.0568
   4   1.0000     -88.678184     -2413.0561
   5   1.0000     -88.612132     -2411.2587
   6   1.0000     -88.612079     -2411.2573
   7   1.0000     -88.612049     -2411.2564
   8   1.0000     -88.611990     -2411.2548
   9   1.0000     -22.002424      -598.7164
  10   1.0000     -18.861084      -513.2362
  11   1.0000     -18.518794      -503.9220
  12   1.0000     -18.502822      -503.4874
  13   1.0000     -18.501827      -503.4603
  14   1.0000     -10.017883      -272.6005
  15   1.0000     -10.017870      -272.6001
  16   1.0000     -10.017725      -272.5961
  17   1.0000     -10.017698      -272.5954
  18   1.0000     -10.007145      -272.3083
  19   1.0000     -10.006979      -272.3037
  20   1.0000      -9.992347      -271.9056
  21   1.0000      -9.992280      -271.9038
  22   1.0000      -9.991632      -271.8861
  23   1.0000      -9.991572      -271.8845
  24   1.0000      -7.731805      -210.3931
  25   1.0000      -7.731759      -210.3918
  26   1.0000      -7.731676      -210.3896
  27   1.0000      -7.731645      -210.3887
  28   1.0000      -7.666395      -208.6132
  29   1.0000      -7.666366      -208.6124
  30   1.0000      -7.666360      -208.6123
  31   1.0000      -7.666298      -208.6106
  32   1.0000      -5.697105      -155.0261
  33   1.0000      -5.697061      -155.0249
  34   1.0000      -5.696977      -155.0226
  35   1.0000      -5.696942      -155.0217
  36   1.0000      -5.693096      -154.9170
  37   1.0000      -5.693045      -154.9156
  38   1.0000      -5.692959      -154.9133
  39   1.0000      -5.692939      -154.9127
  40   1.0000      -5.686607      -154.7404
  41   1.0000      -5.686557      -154.7391
  42   1.0000      -5.686469      -154.7367
  43   1.0000      -5.686435      -154.7358
  44   1.0000      -5.631330      -153.2363
  45   1.0000      -5.631298      -153.2354
  46   1.0000      -5.631295      -153.2353
  47   1.0000      -5.631225      -153.2334
  48   1.0000      -5.625075      -153.0661
  49   1.0000      -5.625037      -153.0650
  50   1.0000      -5.625024      -153.0647
  51   1.0000      -5.624971      -153.0632
  52   1.0000      -5.624336      -153.0460
  53   1.0000      -5.624305      -153.0451
  54   1.0000      -5.624296      -153.0449
  55   1.0000      -5.624239      -153.0433
  56   1.0000      -2.366300       -64.3903
  57   1.0000      -1.432761       -38.9874
  58   1.0000      -1.379126       -37.5279
  59   1.0000      -1.377925       -37.4952
  60   1.0000      -0.643641       -17.5144
  61   1.0000      -0.643579       -17.5127
  62   1.0000      -0.626318       -17.0430
  63   1.0000      -0.593898       -16.1608
  64   1.0000      -0.593436       -16.1482
  65   1.0000      -0.575967       -15.6729
  66   1.0000      -0.575884       -15.6706
  67   1.0000      -0.491355       -13.3704
  68   1.0000      -0.489564       -13.3217
  69   1.0000      -0.488356       -13.2888
  70   1.0000      -0.487213       -13.2577
  71   1.0000      -0.423106       -11.5133
  72   1.0000      -0.420101       -11.4315
  73   1.0000      -0.412845       -11.2341
  74   1.0000      -0.407844       -11.0980
  75   1.0000      -0.377819       -10.2810
  76   1.0000      -0.374551       -10.1921
  77   1.0000      -0.294185        -8.0052
  78   1.0000      -0.293992        -7.9999
  79   1.0000      -0.279151        -7.5961
  80   1.0000      -0.278886        -7.5889
  81   1.0000      -0.261027        -7.1029
  82   1.0000      -0.256321        -6.9749
  83   1.0000      -0.243778        -6.6335
  84   1.0000      -0.241132        -6.5615
  85   1.0000      -0.194745        -5.2993
  86   1.0000      -0.193181        -5.2567
  87   1.0000      -0.192203        -5.2301
  88   1.0000      -0.192002        -5.2246
  89   1.0000      -0.186828        -5.0838
  90   1.0000      -0.186419        -5.0727
  91   1.0000      -0.178245        -4.8503
  92   1.0000      -0.150046        -4.0829
  93   1.0000      -0.148099        -4.0300
  94   1.0000      -0.143564        -3.9066
  95   1.0000      -0.142276        -3.8715
  96   1.0000      -0.141788        -3.8583
  97   1.0000      -0.096191        -2.6175
  98   1.0000      -0.096105        -2.6151
  99   1.0000      -0.088904        -2.4192
 100   1.0000      -0.084756        -2.3063
 101   1.0000      -0.082201        -2.2368
 102   1.0000      -0.081453        -2.2164
 103   1.0000      -0.073021        -1.9870
 104   1.0000      -0.045211        -1.2302
 105   1.0000      -0.038082        -1.0363
 106   1.0000      -0.036603        -0.9960
 107   1.0000      -0.034629        -0.9423
 108   1.0000      -0.033998        -0.9251
 109   1.0000      -0.013106        -0.3566
 110   1.0000      -0.005646        -0.1536
 111   1.0000      -0.001796        -0.0489
 112   1.0000       0.006891         0.1875
 113   1.0000       0.011553         0.3144
 114   1.0000       0.034405         0.9362
 115   1.0000       0.060190         1.6379
 116   0.0000       0.184192         5.0121
 117   0.0000       0.189127         5.1464
 118   0.0000       0.195637         5.3236
 119   0.0000       0.196063         5.3351
 120   0.0000       0.197023         5.3613

MULLIKEN ATOMIC CHARGES AND SPIN POPULATIONS
--------------------------------------------
   0 V :    0.449709    1.200237
   1 S :   -0.253900   -0.024457
   2 S :   -0.254063   -0.024247
   3 S :   -0.254121   -0.024387
   4 S :   -0.254659   -0.024105
   5 O :   -0.511824   -0.137991
   6 C :   -0.117653    0.008702
   7 C :   -0.116269    0.008655
   8 C :   -0.116869    0.008727
   9 C :   -0.116797    0.008714
  10 S :   -0.039568   -0.000098
  11 S :   -0.039442   -0.000125
  12 S :   -0.039663   -0.000132
  13 S :   -0.039856   -0.000157
  14 C :   -0.339876    0.000150
  15 C :   -0.339302    0.000170
  16 C :   -0.338899    0.000140
  17 C :   -0.338831    0.000185
  18 C :   -0.079238    0.000048
  19 H :    0.141442   -0.000057
  20 H :    0.102364    0.000001
  21 H :    0.041677    0.000044
  22 H :    0.080747    0.000031
  23 H :    0.102371    0.000001
  24 H :    0.141748   -0.000059
  25 C :   -0.079203    0.000059
  26 H :    0.102147    0.000011
  27 H :    0.141556   -0.000066
  28 H :    0.080528    0.000023
  29 H :    0.041750    0.000039
  30 H :    0.141789   -0.000063
  31 H :    0.102205    0.000009
Sum of atomic charges         :   -2.0000000

LOEWDIN ATOMIC CHARGES AND SPIN POPULATIONS
-------------------------------------------
   0 V :   -0.235596    1.154708
   1 S :    0.086363   -0.016743
   2 S :    0.086138   -0.016592
   3 S :    0.086031   -0.016688
   4 S :    0.085804   -0.016512
   5 O :   -0.354230   -0.123734
   6 C :   -0.553263    0.009870
   7 C :   -0.552872    0.009809
   8 C :   -0.552860    0.009807
   9 C :   -0.553007    0.009850
  10 S :    0.340717   -0.000973
  11 S :    0.340606   -0.000993
  12 S :    0.340588   -0.000996
  13 S :    0.340580   -0.001011
  14 C :   -0.296018    0.000082
  15 C :   -0.295981    0.000095
  16 C :   -0.296054    0.000077
  17 C :   -0.296135    0.000103
  18 C :   -0.186646   -0.000047
  19 H :    0.064359   -0.000023
  20 H :    0.047939   -0.000007
  21 H :    0.046653    0.000011
  22 H :    0.054900    0.000015
  23 H :    0.047949   -0.000007
  24 H :    0.064477   -0.000024
  25 C :   -0.186640   -0.000051
  26 H :    0.047920   -0.000002
  27 H :    0.064380   -0.000024
  28 H :    0.054869    0.000013
  29 H :    0.046643    0.000011
  30 H :    0.064504   -0.000023
  31 H :    0.047882   -0.000002

  Mayer bond orders larger than 0.100000
B(  0-V ,  1-S ) :   0.7898 B(  0-V ,  2-S ) :   0.7909 B(  0-V ,  3-S ) :   0.7911
B(  0-V ,  4-S ) :   0.7889 B(  0-V ,  5-O ) :   2.0999 B(  1-S ,  8-C ) :   1.1252
B(  2-S ,  6-C ) :   1.1242 B(  3-S ,  9-C ) :   1.1245 B(  4-S ,  7-C ) :   1.1249
B(  6-C ,  7-C ) :   1.5174 B(  6-C , 10-S ) :   0.9597 B(  7-C , 11-S ) :   0.9596
B(  8-C ,  9-C ) :   1.5177 B(  8-C , 13-S ) :   0.9592 B(  9-C , 12-S ) :   0.9594
B( 10-S , 16-C ) :   1.0065 B( 11-S , 14-C ) :   1.0064 B( 12-S , 15-C ) :   1.0064
B( 13-S , 17-C ) :   1.0068 B( 14-C , 18-C ) :   0.8776 B( 14-C , 23-H ) :   0.9717
B( 14-C , 24-H ) :   0.9744 B( 15-C , 25-C ) :   0.8779 B( 15-C , 30-H ) :   0.9742
B( 15-C , 31-H ) :   0.9718 B( 16-C , 18-C ) :   0.8775 B( 16-C , 19-H ) :   0.9743
B( 16-C , 20-H ) :   0.9718 B( 17-C , 25-C ) :   0.8776 B( 17-C , 26-H ) :   0.9718
B( 17-C , 27-H ) :   0.9742 B( 18-C , 21-H ) :   0.9500 B( 18-C , 22-H ) :   0.9721
B( 25-C , 28-H ) :   0.9721 B( 25-C , 29-H ) :   0.9500

FINAL SINGLE POINT ENERGY     -4592.722921764172

DIPOLE MOMENT
-------------
                                X             Y             Z
Electronic contribution:    -22.04068     -15.29506       1.56609
Nuclear contribution   :     24.58520      17.05867      -1.74621
                        -----------------------------------------
Total Dipole Moment    :      2.54452       1.76360      -0.18012
                        -----------------------------------------
Magnitude (a.u.)       :      3.10118
Magnitude (Debye)      :      7.88257

Rotational constants in cm-1:     0.012538     0.002518     0.002407
Rotational constants in MHz :   375.869310    75.488019    72.174569

                             ****ORCA TERMINATED NORMALLY****
TOTAL RUN TIME: 0 days 0 hours 43 minutes 21 seconds 617 msec
