                         Program Version 5.0.4 -  RELEASE  -
|  1> ! nofrozencore ReducedPop printbasis
|  2> ! B3LYP TZVP
|  3>
|  4> %basis
|  5> newgto V "CP(PPP)" end
|  6> end
|  7>
|  8> %pal
|  9> nprocs 8
| 10> end
| 11>
| 12> % sym SymThresh 1e-2 end
| 13> * xyz -2 2
| 14> V 1.074103477591535 0.2602379444435069 -0.15067715712273239
| 15> S 0.9784145765983074 -1.6291440928997052 1.4071199059276898
| 16> S 0.44027784240871504 -1.3582253071773724 -1.876010827334922
| 17> S 0.25411425360157075 1.5279456820260948 1.7779415452245126
| 18> S -0.25433730077918504 1.8063296306881154 -1.5115743054998967
| 19> O 2.6131159476320316 0.6291398983360431 -0.3618848509980233
| 20> C -0.16027765405210379 -0.3572973873934317 -3.204495563176735
| 21> C -0.45040350326159356 0.961844462383231 -3.0520204951778087
| 22> C 0.8451486865583998 -0.8649475265868481 2.995616351755162
| 23> C 0.5432343359064381 0.45141364846049653 3.1505348216429656
| 24> S -0.38348641933322547 -1.2300646861817788 -4.768358770534836
| 25> S -1.09751009383737 1.9775912329611423 -4.39460861014827
| 26> S 0.3693429610208372 1.2271481894247858 4.770177263216203
| 27> S 1.1049527433064763 -1.9758058905716114 4.393797517408718
| 28> C -2.7716263702446615 1.2418200761305374 -4.673249089944976
| 29> C -1.148533193226501 0.425798635881917 5.450843382795366
| 30> C -2.213936412228423 -1.261888310125145 -4.992846775152191
| 31> C -0.5730769990858573 -2.077759319047255 5.157057770933542
| 32> C -2.857643974999131 0.11275081122122525 -5.561200688568712
| 33> H -2.7169655146758744 -1.3877750458654485 -4.022398729271032
| 34> H -2.341994562124315 -2.1764873821670667 -5.591235253326109
| 35> H -3.8501630736007297 -0.4045821871768201 -5.809629005087897
| 36> H -2.2732252849071397 -0.13816173106754093 -6.576079229729846
| 37> H -3.3819933553532344 1.9773486834667462 -5.2194972680916205
| 38> H -3.190497193075524 1.1639821006452646 -3.6613745265788684
| 39> C -0.9522656325250475 -0.943235664378128 6.104800351728943
| 40> H -0.5717434995654423 -3.0231514294029354 5.70875561179778
| 41> H -1.2920893971921728 -2.169888656224268 4.34017933802646
| 42> H -0.19523079303087482 -0.8511021728136181 6.891203721081569
| 43> H -1.898722284573223 -1.212537487194511 6.601092503809279
| 44> H -1.8764037813126575 0.3700907520546756 4.63846151782077
| 45> H -1.527923193438274 1.135749446564788 6.192549010026982
| 46> *
| 47>
| 48> % eprnmr
| 49> gtensor true
| 50> Nuclei = all H {aiso,adip,aorb,fgrad,rho}
| 51> Nuclei = all V {aiso,adip,aorb,fgrad,rho}
| 52> end
| 53>
| 54>                          ****END OF INPUT****

CARTESIAN COORDINATES (ANGSTROEM)
---------------------------------
  V      1.075232    0.260515   -0.150918
  S      0.979543   -1.628868    1.406879
  S      0.441406   -1.357949   -1.876252
  S      0.255243    1.528222    1.777701
  S     -0.253209    1.806606   -1.511815
  O      2.614245    0.629416   -0.362126
  C     -0.159149   -0.357021   -3.204736
  C     -0.449275    0.962121   -3.052261
  C      0.846277   -0.864671    2.995376
  C      0.544363    0.451690    3.150294
  S     -0.382358   -1.229788   -4.768599
  S     -1.096381    1.977868   -4.394849
  S      0.370472    1.227425    4.769937
  S      1.106081   -1.975529    4.393557
  C     -2.770498    1.242097   -4.673490
  C     -1.147405    0.426075    5.450603
  C     -2.212808   -1.261612   -4.993087
  C     -0.571948   -2.077483    5.156817
  C     -2.856515    0.113027   -5.561441
  H     -2.715837   -1.387498   -4.022639
  H     -2.340866   -2.176211   -5.591476
  H     -3.849034   -0.404306   -5.809870
  H     -2.272097   -0.137885   -6.576320
  H     -3.380865    1.977625   -5.219738
  H     -3.189369    1.164259   -3.661615
  C     -0.951137   -0.942959    6.104560
  H     -0.570615   -3.022875    5.708515
  H     -1.290961   -2.169612    4.339939
  H     -0.194102   -0.850826    6.890963
  H     -1.897594   -1.212261    6.600852
  H     -1.875275    0.370367    4.638221
  H     -1.526795    1.136026    6.192308

 Total Charge           Charge          ....   -2
 Multiplicity           Mult            ....    2
 Number of Electrons    NEL             ....  233
 Basis Dimension        Dim             ....  517

ORBITAL ENERGIES
----------------
                 SPIN UP ORBITALS
  NO   OCC          E(Eh)            E(eV)
   0   1.0000    -196.640728     -5350.8663
   1   1.0000     -88.680398     -2413.1163
   2   1.0000     -88.676831     -2413.0192
   3   1.0000     -88.676757     -2413.0172
   4   1.0000     -88.675675     -2412.9878
   5   1.0000     -88.612989     -2411.2820
   6   1.0000     -88.612703     -2411.2742
   7   1.0000     -88.612471     -2411.2679
   8   1.0000     -88.612397     -2411.2659
   9   1.0000     -22.016536      -599.1004
  10   1.0000     -18.857787      -513.1465
  11   1.0000     -18.523359      -504.0462
  12   1.0000     -18.517587      -503.8892
  13   1.0000     -18.517548      -503.8881
  14   1.0000     -10.021546      -272.7001
  15   1.0000     -10.019119      -272.6341
  16   1.0000     -10.017205      -272.5820
  17   1.0000     -10.015657      -272.5399
  18   1.0000     -10.015538      -272.5366
  19   1.0000     -10.004873      -272.2464
  20   1.0000      -9.992879      -271.9201
  21   1.0000      -9.992188      -271.9013
  22   1.0000      -9.992168      -271.9007
  23   1.0000      -9.991475      -271.8819
  24   1.0000      -7.733910      -210.4504
  25   1.0000      -7.730475      -210.3569
  26   1.0000      -7.730403      -210.3549
  27   1.0000      -7.729427      -210.3284
  28   1.0000      -7.667451      -208.6420
  29   1.0000      -7.667149      -208.6337
  30   1.0000      -7.666886      -208.6266
  31   1.0000      -7.666802      -208.6243
  32   1.0000      -5.699284      -155.0854
  33   1.0000      -5.695721      -154.9884
  34   1.0000      -5.695641      -154.9863
  35   1.0000      -5.695269      -154.9761
  36   1.0000      -5.694585      -154.9575
  37   1.0000      -5.691830      -154.8826
  38   1.0000      -5.691760      -154.8807
  39   1.0000      -5.690739      -154.8529
  40   1.0000      -5.688512      -154.7923
  41   1.0000      -5.685224      -154.7028
  42   1.0000      -5.685162      -154.7011
  43   1.0000      -5.684300      -154.6777
  44   1.0000      -5.632286      -153.2623
  45   1.0000      -5.631986      -153.2541
  46   1.0000      -5.631722      -153.2470
  47   1.0000      -5.631652      -153.2451
  48   1.0000      -5.625873      -153.0878
  49   1.0000      -5.625548      -153.0789
  50   1.0000      -5.625445      -153.0761
  51   1.0000      -5.625333      -153.0731
  52   1.0000      -5.625250      -153.0708
  53   1.0000      -5.625146      -153.0680
  54   1.0000      -5.624876      -153.0607
  55   1.0000      -5.624790      -153.0583
  56   1.0000      -2.410221       -65.5854
  57   1.0000      -1.451577       -39.4994
  58   1.0000      -1.440003       -39.1845
  59   1.0000      -1.438926       -39.1552
  60   1.0000      -0.647111       -17.6088
  61   1.0000      -0.644100       -17.5269
  62   1.0000      -0.618821       -16.8390
  63   1.0000      -0.595847       -16.2138
  64   1.0000      -0.593913       -16.1612
  65   1.0000      -0.577423       -15.7125
  66   1.0000      -0.576186       -15.6788
  67   1.0000      -0.492260       -13.3951
  68   1.0000      -0.490717       -13.3531
  69   1.0000      -0.488109       -13.2821
  70   1.0000      -0.487121       -13.2552
  71   1.0000      -0.425674       -11.5832
  72   1.0000      -0.421467       -11.4687
  73   1.0000      -0.411878       -11.2078
  74   1.0000      -0.405464       -11.0332
  75   1.0000      -0.375478       -10.2173
  76   1.0000      -0.370612       -10.0849
  77   1.0000      -0.293070        -7.9748
  78   1.0000      -0.292089        -7.9481
  79   1.0000      -0.278000        -7.5648
  80   1.0000      -0.277785        -7.5589
  81   1.0000      -0.262381        -7.1398
  82   1.0000      -0.260746        -7.0953
  83   1.0000      -0.255129        -6.9424
  84   1.0000      -0.241029        -6.5587
  85   1.0000      -0.204059        -5.5527
  86   1.0000      -0.194548        -5.2939
  87   1.0000      -0.192455        -5.2370
  88   1.0000      -0.185901        -5.0586
  89   1.0000      -0.184662        -5.0249
  90   1.0000      -0.180277        -4.9056
  91   1.0000      -0.156743        -4.2652
  92   1.0000      -0.151340        -4.1182
  93   1.0000      -0.150286        -4.0895
  94   1.0000      -0.144368        -3.9284
  95   1.0000      -0.143083        -3.8935
  96   1.0000      -0.124837        -3.3970
  97   1.0000      -0.097846        -2.6625
  98   1.0000      -0.096961        -2.6384
  99   1.0000      -0.089712        -2.4412
 100   1.0000      -0.083495        -2.2720
 101   1.0000      -0.082035        -2.2323
 102   1.0000      -0.080798        -2.1986
 103   1.0000      -0.070142        -1.9086
 104   1.0000      -0.050745        -1.3809
 105   1.0000      -0.039542        -1.0760
 106   1.0000      -0.038206        -1.0396
 107   1.0000      -0.036162        -0.9840
 108   1.0000      -0.032101        -0.8735
 109   1.0000      -0.013643        -0.3713
 110   1.0000      -0.004932        -0.1342
 111   1.0000      -0.003804        -0.1035
 112   1.0000       0.005561         0.1513
 113   1.0000       0.010058         0.2737
 114   1.0000       0.015654         0.4260
 115   1.0000       0.032959         0.8969
 116   1.0000       0.059134         1.6091
 117   0.0000       0.184475         5.0198
 118   0.0000       0.191386         5.2079
 119   0.0000       0.196264         5.3406
 120   0.0000       0.197258         5.3677
 121   0.0000       0.210741         5.7346

                 SPIN DOWN ORBITALS
  NO   OCC          E(Eh)            E(eV)
   0   1.0000    -196.640870     -5350.8701
   1   1.0000     -88.680412     -2413.1167
   2   1.0000     -88.676844     -2413.0196
   3   1.0000     -88.676771     -2413.0176
   4   1.0000     -88.675688     -2412.9881
   5   1.0000     -88.613147     -2411.2863
   6   1.0000     -88.612863     -2411.2786
   7   1.0000     -88.612631     -2411.2723
   8   1.0000     -88.612557     -2411.2703
   9   1.0000     -22.001868      -598.7013
  10   1.0000     -18.861361      -513.2437
  11   1.0000     -18.518230      -503.9067
  12   1.0000     -18.502094      -503.4676
  13   1.0000     -18.501417      -503.4491
  14   1.0000     -10.021542      -272.7000
  15   1.0000     -10.019119      -272.6341
  16   1.0000     -10.017201      -272.5819
  17   1.0000     -10.015653      -272.5398
  18   1.0000     -10.015534      -272.5365
  19   1.0000     -10.004873      -272.2464
  20   1.0000      -9.992625      -271.9131
  21   1.0000      -9.991933      -271.8943
  22   1.0000      -9.991915      -271.8938
  23   1.0000      -9.991222      -271.8750
  24   1.0000      -7.733924      -210.4508
  25   1.0000      -7.730490      -210.3573
  26   1.0000      -7.730417      -210.3553
  27   1.0000      -7.729441      -210.3288
  28   1.0000      -7.667598      -208.6459
  29   1.0000      -7.667298      -208.6378
  30   1.0000      -7.667034      -208.6306
  31   1.0000      -7.666951      -208.6283
  32   1.0000      -5.699300      -155.0858
  33   1.0000      -5.695737      -154.9889
  34   1.0000      -5.695658      -154.9867
  35   1.0000      -5.695290      -154.9767
  36   1.0000      -5.694602      -154.9580
  37   1.0000      -5.691851      -154.8831
  38   1.0000      -5.691780      -154.8812
  39   1.0000      -5.690758      -154.8534
  40   1.0000      -5.688529      -154.7928
  41   1.0000      -5.685241      -154.7033
  42   1.0000      -5.685179      -154.7016
  43   1.0000      -5.684316      -154.6781
  44   1.0000      -5.632456      -153.2669
  45   1.0000      -5.632157      -153.2588
  46   1.0000      -5.631894      -153.2516
  47   1.0000      -5.631824      -153.2497
  48   1.0000      -5.626260      -153.0983
  49   1.0000      -5.625939      -153.0896
  50   1.0000      -5.625725      -153.0838
  51   1.0000      -5.625644      -153.0816
  52   1.0000      -5.625579      -153.0798
  53   1.0000      -5.625281      -153.0717
  54   1.0000      -5.625012      -153.0644
  55   1.0000      -5.624925      -153.0620
  56   1.0000      -2.366043       -64.3833
  57   1.0000      -1.432757       -38.9873
  58   1.0000      -1.378592       -37.5134
  59   1.0000      -1.377955       -37.4961
  60   1.0000      -0.647066       -17.6076
  61   1.0000      -0.644051       -17.5255
  62   1.0000      -0.626476       -17.0473
  63   1.0000      -0.595652       -16.2085
  64   1.0000      -0.593713       -16.1558
  65   1.0000      -0.577413       -15.7122
  66   1.0000      -0.576181       -15.6787
  67   1.0000      -0.492275       -13.3955
  68   1.0000      -0.490741       -13.3537
  69   1.0000      -0.488130       -13.2827
  70   1.0000      -0.487140       -13.2558
  71   1.0000      -0.425926       -11.5900
  72   1.0000      -0.421767       -11.4769
  73   1.0000      -0.411895       -11.2082
  74   1.0000      -0.405557       -11.0358
  75   1.0000      -0.375452       -10.2166
  76   1.0000      -0.370617       -10.0850
  77   1.0000      -0.293051        -7.9743
  78   1.0000      -0.292077        -7.9478
  79   1.0000      -0.277977        -7.5641
  80   1.0000      -0.277772        -7.5586
  81   1.0000      -0.262364        -7.1393
  82   1.0000      -0.260531        -7.0894
  83   1.0000      -0.255058        -6.9405
  84   1.0000      -0.240939        -6.5563
  85   1.0000      -0.203977        -5.5505
  86   1.0000      -0.194190        -5.2842
  87   1.0000      -0.192412        -5.2358
  88   1.0000      -0.185283        -5.0418
  89   1.0000      -0.184508        -5.0207
  90   1.0000      -0.178727        -4.8634
  91   1.0000      -0.156583        -4.2608
  92   1.0000      -0.150778        -4.1029
  93   1.0000      -0.149885        -4.0786
  94   1.0000      -0.144158        -3.9228
  95   1.0000      -0.142892        -3.8883
  96   1.0000      -0.124746        -3.3945
  97   1.0000      -0.096530        -2.6267
  98   1.0000      -0.096244        -2.6189
  99   1.0000      -0.089883        -2.4458
 100   1.0000      -0.083477        -2.2715
 101   1.0000      -0.082646        -2.2489
 102   1.0000      -0.081617        -2.2209
 103   1.0000      -0.071408        -1.9431
 104   1.0000      -0.046618        -1.2685
 105   1.0000      -0.039410        -1.0724
 106   1.0000      -0.037741        -1.0270
 107   1.0000      -0.035211        -0.9581
 108   1.0000      -0.031970        -0.8700
 109   1.0000      -0.012731        -0.3464
 110   1.0000      -0.006277        -0.1708
 111   1.0000      -0.002812        -0.0765
 112   1.0000       0.006408         0.1744
 113   1.0000       0.010953         0.2981
 114   1.0000       0.033215         0.9038
 115   1.0000       0.058343         1.5876
 116   0.0000       0.184389         5.0175
 117   0.0000       0.185439         5.0461
 118   0.0000       0.192218         5.2305
 119   0.0000       0.196439         5.3454
 120   0.0000       0.197741         5.3808

MULLIKEN ATOMIC CHARGES AND SPIN POPULATIONS
--------------------------------------------
   0 V :    0.447584    1.199117
   1 S :   -0.253553   -0.024315
   2 S :   -0.249968   -0.024056
   3 S :   -0.254287   -0.024198
   4 S :   -0.255427   -0.023761
   5 O :   -0.506143   -0.138745
   6 C :   -0.098042    0.008929
   7 C :   -0.132868    0.008743
   8 C :   -0.116436    0.008926
   9 C :   -0.115406    0.008871
  10 S :   -0.050638   -0.000113
  11 S :   -0.032649   -0.000212
  12 S :   -0.044951   -0.000193
  13 S :   -0.044575   -0.000228
  14 C :   -0.315340    0.000293
  15 C :   -0.338613    0.000300
  16 C :   -0.385649    0.000280
  17 C :   -0.336404    0.000318
  18 C :   -0.077144    0.000146
  19 H :    0.143286   -0.000103
  20 H :    0.111751    0.000025
  21 H :    0.043003    0.000045
  22 H :    0.063889   -0.000022
  23 H :    0.100548    0.000024
  24 H :    0.162332   -0.000095
  25 C :   -0.084525    0.000136
  26 H :    0.101623    0.000029
  27 H :    0.146992   -0.000109
  28 H :    0.078409    0.000011
  29 H :    0.044511    0.000035
  30 H :    0.146752   -0.000106
  31 H :    0.101935    0.000027
Sum of atomic charges         :   -2.0000000

LOEWDIN ATOMIC CHARGES AND SPIN POPULATIONS
-------------------------------------------
   0 V :   -0.242825    1.153138
   1 S :    0.088263   -0.016478
   2 S :    0.091238   -0.016317
   3 S :    0.087747   -0.016382
   4 S :    0.086369   -0.016061
   5 O :   -0.350609   -0.124201
   6 C :   -0.549537    0.010074
   7 C :   -0.556411    0.009872
   8 C :   -0.552595    0.009949
   9 C :   -0.552774    0.009980
  10 S :    0.332107   -0.000990
  11 S :    0.347563   -0.001042
  12 S :    0.336601   -0.001042
  13 S :    0.336939   -0.001059
  14 C :   -0.298570    0.000157
  15 C :   -0.293840    0.000169
  16 C :   -0.315758    0.000168
  17 C :   -0.293564    0.000178
  18 C :   -0.208811   -0.000045
  19 H :    0.058718   -0.000031
  20 H :    0.046983    0.000007
  21 H :    0.053807    0.000022
  22 H :    0.074702   -0.000001
  23 H :    0.055166    0.000005
  24 H :    0.077219   -0.000024
  25 C :   -0.184823   -0.000039
  26 H :    0.047390    0.000009
  27 H :    0.066096   -0.000028
  28 H :    0.053437    0.000010
  29 H :    0.046797    0.000018
  30 H :    0.065746   -0.000027
  31 H :    0.047231    0.000009

  Mayer bond orders larger than 0.100000
B(  0-V ,  1-S ) :   0.7893 B(  0-V ,  2-S ) :   0.7913 B(  0-V ,  3-S ) :   0.7910
B(  0-V ,  4-S ) :   0.7846 B(  0-V ,  5-O ) :   2.1085 B(  1-S ,  8-C ) :   1.1377
B(  2-S ,  6-C ) :   1.1434 B(  3-S ,  9-C ) :   1.1366 B(  4-S ,  7-C ) :   1.1332
B(  6-C ,  7-C ) :   1.5138 B(  6-C , 10-S ) :   0.9385 B(  7-C , 11-S ) :   0.9711
B(  8-C ,  9-C ) :   1.5183 B(  8-C , 13-S ) :   0.9543 B(  9-C , 12-S ) :   0.9534
B( 10-S , 16-C ) :   1.0275 B( 11-S , 14-C ) :   0.9686 B( 12-S , 15-C ) :   1.0058
B( 13-S , 17-C ) :   1.0043 B( 14-C , 18-C ) :   0.9356 B( 14-C , 23-H ) :   0.9666
B( 14-C , 24-H ) :   0.9679 B( 15-C , 25-C ) :   0.8771 B( 15-C , 30-H ) :   0.9751
B( 15-C , 31-H ) :   0.9701 B( 16-C , 18-C ) :   0.8138 B( 16-C , 19-H ) :   0.9675
B( 16-C , 20-H ) :   0.9669 B( 17-C , 25-C ) :   0.8795 B( 17-C , 26-H ) :   0.9701
B( 17-C , 27-H ) :   0.9751 B( 18-C , 21-H ) :   0.9523 B( 18-C , 22-H ) :   0.9569
B( 25-C , 28-H ) :   0.9739 B( 25-C , 29-H ) :   0.9526

FINAL SINGLE POINT ENERGY     -4592.673484775361

DIPOLE MOMENT
-------------
                                X             Y             Z
Electronic contribution:     25.63545       6.77788      -3.42795
Nuclear contribution   :    -28.52528      -7.50343       3.97174
                        -----------------------------------------
Total Dipole Moment    :     -2.88983      -0.72555       0.54378
                        -----------------------------------------
Magnitude (a.u.)       :      3.02874
Magnitude (Debye)      :      7.69844

Rotational constants in cm-1:     0.012768     0.002548     0.002431
Rotational constants in MHz :   382.775947    76.399061    72.880157

                             ****ORCA TERMINATED NORMALLY****
TOTAL RUN TIME: 0 days 0 hours 27 minutes 37 seconds 715 msec
