                         Program Version 5.0.4 -  RELEASE  -
|  1> ! nofrozencore ReducedPop printbasis
|  2> ! B3LYP TZVP
|  3>
|  4> %basis
|  5> newgto V "CP(PPP)" end
|  6> end
|  7>
|  8> %pal
|  9> nprocs 4
| 10> end
| 11>
| 12> % sym SymThresh 1e-2 end
| 13> * xyz -2 2
| 14> V 0.436549228327651 1.014064627660022 -0.1579027957835873
| 15> S -0.9320120116380808 0.48038141742998036 -2.119443218912057
| 16> S -1.6867192892119391 1.281855770705914 1.022071228903993
| 17> S 1.9706401675912175 -0.6276635175366696 -1.132698470122809
| 18> S 1.2314034660235178 0.20123130263384595 2.0075605385984137
| 19> O 1.0594104288162716 2.465473160719549 -0.388982633488797
| 20> C -1.2380881737139302 1.1863003892188946 2.74835057714601
| 21> C -0.025757473581018205 0.7356835759474872 3.157896823294555
| 22> C 0.18653259071909994 -0.3514489708863114 -3.2053046918473402
| 23> C 1.3971691473994448 -0.8136300041194069 -2.794073517023803
| 24> S -2.556577295119543 1.6036352191640317 3.9336162340781256
| 25> S 0.36598435909159605 0.5104107250016542 4.922586398180189
| 26> S 2.5288129833113473 -1.6925435714374946 -3.8897127520426973
| 27> S -0.4176076551261079 -0.5670109809869694 -4.891550594292905
| 28> C -0.6735247742516346 -0.597185069571263 5.437527160752345
| 29> C 1.6295148922264713 -3.283587457324422 -4.220294457536096
| 30> C -2.8803793351454265 0.2253963190350708 4.6942006048802005
| 31> C -0.6765821040121021 -2.4021407325570694 -5.005552384522086
| 32> C -2.0617970348799455 -0.28318394851374235 5.803780865470236
| 33> H -2.9712929128001635 -0.5894449841446359 3.963774076779383
| 34> H -3.891555187001436 0.3771655244272086 5.093129343363545
| 35> H -2.513696828561164 -1.3401142323559136 5.977690255907266
| 36> H -2.1709609252460607 0.3099274457750116 6.783105970864243
| 37> H -0.19677251631997988 -1.0044961392222564 6.338404789892303
| 38> H -0.712573578339258 -1.4307677206111467 4.723567832086036
| 39> C 0.5681518813087612 -3.2348423138895384 -5.322200774138467
| 40> H -1.4148005785390745 -2.5299797248633493 -5.803431725557549
| 41> H -1.1381827841234131 -2.718760064082668 -4.067879008400603
| 42> H 1.0270264576618147 -2.8529997433204963 -6.240809125398148
| 43> H 0.24458341900725183 -4.267475877478323 -5.531665227599583
| 44> H 1.200881307934699 -3.6114166620621413 -3.27089934490531
| 45> H 2.413578024260706 -3.994700068088303 -4.498597732819095
| 46> *
| 47>
| 48> % eprnmr
| 49> gtensor true
| 50> Nuclei = all H {aiso,adip,aorb,fgrad,rho}
| 51> Nuclei = all V {aiso,adip,aorb,fgrad,rho}
| 52> end
| 53>
| 54>                          ****END OF INPUT****

CARTESIAN COORDINATES (ANGSTROEM)
---------------------------------
  V      0.436989    1.015163   -0.157996
  S     -0.931573    0.481480   -2.119536
  S     -1.686280    1.282954    1.021978
  S      1.971080   -0.626565   -1.132791
  S      1.231843    0.202330    2.007468
  O      1.059850    2.466572   -0.389075
  C     -1.237649    1.187399    2.748258
  C     -0.025318    0.736782    3.157804
  C      0.186972   -0.350350   -3.205398
  C      1.397609   -0.812532   -2.794166
  S     -2.556138    1.604734    3.933523
  S      0.366424    0.511509    4.922494
  S      2.529252   -1.691445   -3.889806
  S     -0.417168   -0.565913   -4.891643
  C     -0.673085   -0.596087    5.437434
  C      1.629954   -3.282489   -4.220387
  C     -2.879940    0.226495    4.694108
  C     -0.676143   -2.401042   -5.005645
  C     -2.061358   -0.282085    5.803688
  H     -2.970853   -0.588347    3.963681
  H     -3.891116    0.378264    5.093036
  H     -2.513257   -1.339016    5.977597
  H     -2.170521    0.311026    6.783013
  H     -0.196333   -1.003398    6.338312
  H     -0.712134   -1.429669    4.723475
  C      0.568591   -3.233744   -5.322294
  H     -1.414361   -2.528881   -5.803525
  H     -1.137743   -2.717662   -4.067972
  H      1.027466   -2.851901   -6.240902
  H      0.245023   -4.266377   -5.531758
  H      1.201321   -3.610318   -3.270992
  H      2.414018   -3.993602   -4.498691

 Total Charge           Charge          ....   -2
 Multiplicity           Mult            ....    2
 Number of Electrons    NEL             ....  233
 Basis Dimension        Dim             ....  517

ORBITAL ENERGIES
----------------
                 SPIN UP ORBITALS
  NO   OCC          E(Eh)            E(eV)
   0   1.0000    -196.640088     -5350.8488
   1   1.0000     -88.676668     -2413.0148
   2   1.0000     -88.676663     -2413.0147
   3   1.0000     -88.667476     -2412.7647
   4   1.0000     -88.667379     -2412.7620
   5   1.0000     -88.612397     -2411.2659
   6   1.0000     -88.612321     -2411.2638
   7   1.0000     -88.611913     -2411.2527
   8   1.0000     -88.611841     -2411.2508
   9   1.0000     -22.015929      -599.0839
  10   1.0000     -18.857033      -513.1260
  11   1.0000     -18.522744      -504.0295
  12   1.0000     -18.516987      -503.8728
  13   1.0000     -18.516945      -503.8717
  14   1.0000     -10.015870      -272.5457
  15   1.0000     -10.015852      -272.5452
  16   1.0000     -10.005091      -272.2524
  17   1.0000     -10.003838      -272.2183
  18   1.0000     -10.000808      -272.1358
  19   1.0000     -10.000668      -272.1320
  20   1.0000      -9.992075      -271.8982
  21   1.0000      -9.991713      -271.8883
  22   1.0000      -9.991344      -271.8783
  23   1.0000      -9.990999      -271.8689
  24   1.0000      -7.730153      -210.3482
  25   1.0000      -7.730144      -210.3479
  26   1.0000      -7.727209      -210.2680
  27   1.0000      -7.727190      -210.2675
  28   1.0000      -7.666440      -208.6144
  29   1.0000      -7.666388      -208.6130
  30   1.0000      -7.666354      -208.6121
  31   1.0000      -7.666291      -208.6104
  32   1.0000      -5.695415      -154.9801
  33   1.0000      -5.695411      -154.9800
  34   1.0000      -5.692018      -154.8877
  35   1.0000      -5.692012      -154.8875
  36   1.0000      -5.691525      -154.8743
  37   1.0000      -5.691524      -154.8742
  38   1.0000      -5.687674      -154.7695
  39   1.0000      -5.687665      -154.7692
  40   1.0000      -5.684891      -154.6938
  41   1.0000      -5.684887      -154.6937
  42   1.0000      -5.681958      -154.6139
  43   1.0000      -5.681932      -154.6132
  44   1.0000      -5.631461      -153.2399
  45   1.0000      -5.631396      -153.2381
  46   1.0000      -5.631198      -153.2327
  47   1.0000      -5.631123      -153.2306
  48   1.0000      -5.624904      -153.0614
  49   1.0000      -5.624855      -153.0601
  50   1.0000      -5.624798      -153.0585
  51   1.0000      -5.624744      -153.0571
  52   1.0000      -5.624341      -153.0461
  53   1.0000      -5.624297      -153.0449
  54   1.0000      -5.624278      -153.0444
  55   1.0000      -5.624248      -153.0436
  56   1.0000      -2.409599       -65.5685
  57   1.0000      -1.450964       -39.4827
  58   1.0000      -1.439407       -39.1683
  59   1.0000      -1.438304       -39.1382
  60   1.0000      -0.685925       -18.6650
  61   1.0000      -0.642248       -17.4764
  62   1.0000      -0.628337       -17.0979
  63   1.0000      -0.618107       -16.8195
  64   1.0000      -0.593494       -16.1498
  65   1.0000      -0.592689       -16.1279
  66   1.0000      -0.574038       -15.6204
  67   1.0000      -0.511996       -13.9321
  68   1.0000      -0.489680       -13.3249
  69   1.0000      -0.487151       -13.2561
  70   1.0000      -0.481760       -13.1094
  71   1.0000      -0.422325       -11.4921
  72   1.0000      -0.418483       -11.3875
  73   1.0000      -0.413562       -11.2536
  74   1.0000      -0.407224       -11.0811
  75   1.0000      -0.375027       -10.2050
  76   1.0000      -0.363451        -9.8900
  77   1.0000      -0.316164        -8.6032
  78   1.0000      -0.291692        -7.9373
  79   1.0000      -0.286682        -7.8010
  80   1.0000      -0.278561        -7.5800
  81   1.0000      -0.277165        -7.5421
  82   1.0000      -0.257781        -7.0146
  83   1.0000      -0.255201        -6.9444
  84   1.0000      -0.240289        -6.5386
  85   1.0000      -0.203838        -5.5467
  86   1.0000      -0.197542        -5.3754
  87   1.0000      -0.193642        -5.2693
  88   1.0000      -0.191865        -5.2209
  89   1.0000      -0.185212        -5.0399
  90   1.0000      -0.184147        -5.0109
  91   1.0000      -0.179925        -4.8960
  92   1.0000      -0.157070        -4.2741
  93   1.0000      -0.149247        -4.0612
  94   1.0000      -0.144590        -3.9345
  95   1.0000      -0.142938        -3.8895
  96   1.0000      -0.130414        -3.5488
  97   1.0000      -0.097904        -2.6641
  98   1.0000      -0.093024        -2.5313
  99   1.0000      -0.091605        -2.4927
 100   1.0000      -0.084739        -2.3059
 101   1.0000      -0.080275        -2.1844
 102   1.0000      -0.075667        -2.0590
 103   1.0000      -0.070323        -1.9136
 104   1.0000      -0.049833        -1.3560
 105   1.0000      -0.037492        -1.0202
 106   1.0000      -0.037142        -1.0107
 107   1.0000      -0.035089        -0.9548
 108   1.0000      -0.029906        -0.8138
 109   1.0000      -0.013455        -0.3661
 110   1.0000      -0.004149        -0.1129
 111   1.0000      -0.001297        -0.0353
 112   1.0000       0.006376         0.1735
 113   1.0000       0.010689         0.2909
 114   1.0000       0.016316         0.4440
 115   1.0000       0.032818         0.8930
 116   1.0000       0.059192         1.6107
 117   0.0000       0.189668         5.1611
 118   0.0000       0.190121         5.1735
 119   0.0000       0.196729         5.3533
 120   0.0000       0.203717         5.5434
 121   0.0000       0.211390         5.7522

                 SPIN DOWN ORBITALS
  NO   OCC          E(Eh)            E(eV)
   0   1.0000    -196.640230     -5350.8527
   1   1.0000     -88.676681     -2413.0152
   2   1.0000     -88.676676     -2413.0150
   3   1.0000     -88.667488     -2412.7650
   4   1.0000     -88.667391     -2412.7624
   5   1.0000     -88.612555     -2411.2702
   6   1.0000     -88.612477     -2411.2681
   7   1.0000     -88.612073     -2411.2571
   8   1.0000     -88.612000     -2411.2551
   9   1.0000     -22.001292      -598.6856
  10   1.0000     -18.860604      -513.2231
  11   1.0000     -18.517628      -503.8903
  12   1.0000     -18.501516      -503.4518
  13   1.0000     -18.500859      -503.4340
  14   1.0000     -10.015866      -272.5456
  15   1.0000     -10.015849      -272.5451
  16   1.0000     -10.005091      -272.2524
  17   1.0000     -10.003838      -272.2183
  18   1.0000     -10.000806      -272.1358
  19   1.0000     -10.000665      -272.1319
  20   1.0000      -9.991806      -271.8909
  21   1.0000      -9.991458      -271.8814
  22   1.0000      -9.991077      -271.8710
  23   1.0000      -9.990747      -271.8620
  24   1.0000      -7.730167      -210.3485
  25   1.0000      -7.730158      -210.3483
  26   1.0000      -7.727221      -210.2684
  27   1.0000      -7.727202      -210.2679
  28   1.0000      -7.666585      -208.6184
  29   1.0000      -7.666533      -208.6170
  30   1.0000      -7.666503      -208.6161
  31   1.0000      -7.666440      -208.6144
  32   1.0000      -5.695431      -154.9806
  33   1.0000      -5.695428      -154.9805
  34   1.0000      -5.692038      -154.8882
  35   1.0000      -5.692031      -154.8880
  36   1.0000      -5.691545      -154.8748
  37   1.0000      -5.691544      -154.8748
  38   1.0000      -5.687689      -154.7699
  39   1.0000      -5.687681      -154.7697
  40   1.0000      -5.684908      -154.6942
  41   1.0000      -5.684904      -154.6941
  42   1.0000      -5.681970      -154.6143
  43   1.0000      -5.681944      -154.6136
  44   1.0000      -5.631635      -153.2446
  45   1.0000      -5.631569      -153.2428
  46   1.0000      -5.631370      -153.2374
  47   1.0000      -5.631294      -153.2353
  48   1.0000      -5.625288      -153.0719
  49   1.0000      -5.625238      -153.0705
  50   1.0000      -5.625189      -153.0692
  51   1.0000      -5.625136      -153.0677
  52   1.0000      -5.624477      -153.0498
  53   1.0000      -5.624427      -153.0484
  54   1.0000      -5.624412      -153.0480
  55   1.0000      -5.624378      -153.0471
  56   1.0000      -2.365506       -64.3687
  57   1.0000      -1.432189       -38.9718
  58   1.0000      -1.378063       -37.4990
  59   1.0000      -1.377501       -37.4837
  60   1.0000      -0.685907       -18.6645
  61   1.0000      -0.642196       -17.4750
  62   1.0000      -0.628344       -17.0981
  63   1.0000      -0.625756       -17.0277
  64   1.0000      -0.593301       -16.1445
  65   1.0000      -0.592455       -16.1215
  66   1.0000      -0.574032       -15.6202
  67   1.0000      -0.511970       -13.9314
  68   1.0000      -0.489712       -13.3257
  69   1.0000      -0.487160       -13.2563
  70   1.0000      -0.481762       -13.1094
  71   1.0000      -0.422573       -11.4988
  72   1.0000      -0.418747       -11.3947
  73   1.0000      -0.413572       -11.2539
  74   1.0000      -0.407335       -11.0841
  75   1.0000      -0.375014       -10.2047
  76   1.0000      -0.363442        -9.8898
  77   1.0000      -0.316137        -8.6025
  78   1.0000      -0.291675        -7.9369
  79   1.0000      -0.286652        -7.8002
  80   1.0000      -0.278456        -7.5772
  81   1.0000      -0.277146        -7.5415
  82   1.0000      -0.257679        -7.0118
  83   1.0000      -0.255176        -6.9437
  84   1.0000      -0.240188        -6.5358
  85   1.0000      -0.203798        -5.5456
  86   1.0000      -0.197506        -5.3744
  87   1.0000      -0.193326        -5.2607
  88   1.0000      -0.191829        -5.2199
  89   1.0000      -0.184872        -5.0306
  90   1.0000      -0.184089        -5.0093
  91   1.0000      -0.177896        -4.8408
  92   1.0000      -0.156629        -4.2621
  93   1.0000      -0.148530        -4.0417
  94   1.0000      -0.144362        -3.9283
  95   1.0000      -0.142720        -3.8836
  96   1.0000      -0.130173        -3.5422
  97   1.0000      -0.096493        -2.6257
  98   1.0000      -0.092524        -2.5177
  99   1.0000      -0.091465        -2.4889
 100   1.0000      -0.084821        -2.3081
 101   1.0000      -0.082079        -2.2335
 102   1.0000      -0.075315        -2.0494
 103   1.0000      -0.071714        -1.9514
 104   1.0000      -0.045564        -1.2399
 105   1.0000      -0.037643        -1.0243
 106   1.0000      -0.036286        -0.9874
 107   1.0000      -0.034208        -0.9309
 108   1.0000      -0.029777        -0.8103
 109   1.0000      -0.012529        -0.3409
 110   1.0000      -0.004969        -0.1352
 111   1.0000      -0.000496        -0.0135
 112   1.0000       0.006881         0.1873
 113   1.0000       0.011528         0.3137
 114   1.0000       0.033058         0.8996
 115   1.0000       0.058402         1.5892
 116   0.0000       0.184291         5.0148
 117   0.0000       0.189928         5.1682
 118   0.0000       0.191232         5.2037
 119   0.0000       0.196912         5.3583
 120   0.0000       0.206432         5.6173

MULLIKEN ATOMIC CHARGES AND SPIN POPULATIONS
--------------------------------------------
   0 V :    0.450824    1.196990
   1 S :   -0.253679   -0.024174
   2 S :   -0.262660   -0.024003
   3 S :   -0.253918   -0.024148
   4 S :   -0.263081   -0.023894
   5 O :   -0.505996   -0.138614
   6 C :   -0.125690    0.009575
   7 C :   -0.123631    0.009587
   8 C :   -0.114807    0.008913
   9 C :   -0.115726    0.008844
  10 S :   -0.014404    0.000014
  11 S :   -0.013539   -0.000024
  12 S :   -0.046120   -0.000194
  13 S :   -0.046254   -0.000220
  14 C :   -0.363382    0.000320
  15 C :   -0.338097    0.000297
  16 C :   -0.362173    0.000297
  17 C :   -0.337486    0.000319
  18 C :    0.015280    0.000330
  19 H :    0.137619   -0.000130
  20 H :    0.096515   -0.000001
  21 H :    0.019977    0.000001
  22 H :    0.050417    0.000032
  23 H :    0.096362   -0.000000
  24 H :    0.137659   -0.000135
  25 C :   -0.086583    0.000127
  26 H :    0.101647    0.000029
  27 H :    0.147139   -0.000108
  28 H :    0.079496    0.000013
  29 H :    0.045085    0.000039
  30 H :    0.147518   -0.000104
  31 H :    0.101689    0.000026
Sum of atomic charges         :   -2.0000000

LOEWDIN ATOMIC CHARGES AND SPIN POPULATIONS
-------------------------------------------
   0 V :   -0.244961    1.151112
   1 S :    0.088652   -0.016375
   2 S :    0.079168   -0.016054
   3 S :    0.088429   -0.016340
   4 S :    0.078876   -0.016005
   5 O :   -0.349973   -0.124066
   6 C :   -0.531243    0.010595
   7 C :   -0.530566    0.010568
   8 C :   -0.553395    0.009960
   9 C :   -0.553799    0.009975
  10 S :    0.414891   -0.000843
  11 S :    0.416194   -0.000861
  12 S :    0.333707   -0.001041
  13 S :    0.333718   -0.001053
  14 C :   -0.383973    0.000138
  15 C :   -0.290596    0.000170
  16 C :   -0.382645    0.000134
  17 C :   -0.290691    0.000181
  18 C :   -0.194938   -0.000066
  19 H :    0.061379   -0.000054
  20 H :    0.052666   -0.000007
  21 H :    0.052424    0.000026
  22 H :    0.050558    0.000010
  23 H :    0.052752   -0.000006
  24 H :    0.061444   -0.000056
  25 C :   -0.184859   -0.000037
  26 H :    0.047142    0.000009
  27 H :    0.065974   -0.000026
  28 H :    0.053791    0.000011
  29 H :    0.046672    0.000018
  30 H :    0.066056   -0.000026
  31 H :    0.047147    0.000008

  Mayer bond orders larger than 0.100000
B(  0-V ,  1-S ) :   0.7877 B(  0-V ,  2-S ) :   0.7899 B(  0-V ,  3-S ) :   0.7897
B(  0-V ,  4-S ) :   0.7874 B(  0-V ,  5-O ) :   2.1086 B(  1-S ,  8-C ) :   1.1386
B(  2-S ,  6-C ) :   1.1189 B(  3-S ,  9-C ) :   1.1378 B(  4-S ,  7-C ) :   1.1201
B(  6-C ,  7-C ) :   1.5689 B(  6-C , 10-S ) :   0.9225 B(  7-C , 11-S ) :   0.9215
B(  8-C ,  9-C ) :   1.5154 B(  8-C , 13-S ) :   0.9545 B(  9-C , 12-S ) :   0.9548
B( 10-S , 16-C ) :   1.1245 B( 11-S , 14-C ) :   1.1270 B( 12-S , 15-C ) :   1.0017
B( 13-S , 17-C ) :   1.0022 B( 14-C , 18-C ) :   0.8640 B( 14-C , 23-H ) :   0.9547
B( 14-C , 24-H ) :   0.9632 B( 15-C , 25-C ) :   0.8776 B( 15-C , 30-H ) :   0.9754
B( 15-C , 31-H ) :   0.9701 B( 16-C , 18-C ) :   0.8654 B( 16-C , 19-H ) :   0.9633
B( 16-C , 20-H ) :   0.9549 B( 17-C , 25-C ) :   0.8779 B( 17-C , 26-H ) :   0.9702
B( 17-C , 27-H ) :   0.9753 B( 18-C , 21-H ) :   0.9701 B( 18-C , 22-H ) :   0.9420
B( 25-C , 28-H ) :   0.9746 B( 25-C , 29-H ) :   0.9517

FINAL SINGLE POINT ENERGY     -4592.656057794648

DIPOLE MOMENT
-------------
                                X             Y             Z
Electronic contribution:     10.32028      24.10574      -3.54430
Nuclear contribution   :    -11.51238     -26.87026       3.98008
                        -----------------------------------------
Total Dipole Moment    :     -1.19211      -2.76452       0.43578
                        -----------------------------------------
Magnitude (a.u.)       :      3.04198
Magnitude (Debye)      :      7.73209

Rotational constants in cm-1:     0.013016     0.002555     0.002434
Rotational constants in MHz :   390.210755    76.601989    72.961316

                             ****ORCA TERMINATED NORMALLY****
TOTAL RUN TIME: 0 days 0 hours 43 minutes 0 seconds 393 msec
