                         Program Version 5.0.4 -  RELEASE  -
|  1> ! nofrozencore ReducedPop printbasis
|  2> ! B3LYP TZVP
|  3>
|  4> %basis
|  5> newgto V "CP(PPP)" end
|  6> end
|  7>
|  8> %pal
|  9> nprocs 4
| 10> end
| 11>
| 12> % sym SymThresh 1e-2 end
| 13> * xyz -2 2
| 14> V -0.8103557344275767 -0.30740855956516194 -0.7103658747268304
| 15> S -0.9975712044731023 2.1715968210023964 -0.13555180896753655
| 16> S 0.9886811174904026 0.3209384413437709 -2.081270754879278
| 17> S -1.6047536930151807 -0.4480383762414921 1.7113617072293708
| 18> S 0.36681067377916593 -2.2930470273414723 -0.26924555771843833
| 19> O -2.1814964352898247 -0.5476144369915249 -1.516190480742193
| 20> C 1.725527035752962 -1.2626150938518004 -2.423459451491856
| 21> C 1.4642350431958762 -2.360962767775097 -1.663860998019344
| 22> C -1.7664301325371323 2.2813174783285235 1.4520383010839069
| 23> C -2.0191842853060527 1.1925076547102813 2.219402415720158
| 24> S 3.04871524527498 -1.228224937480946 -3.641717855437712
| 25> S 2.4211596435957765 -3.8851077311355766 -1.7932781951701608
| 26> S -3.0798213108648698 1.258121551083059 3.69283134235304
| 27> S -2.464903090452237 3.9170883385536714 1.820002938298687
| 28> C 4.191917556955026 -3.527621789593637 -1.3238970324244992
| 29> C -1.876461367941181 2.1603960937280817 4.729237567310904
| 30> C 4.686519033649711 -1.4497053211862967 -2.775361642252794
| 31> C -1.3966426142109547 4.240528534014585 3.265488284903056
| 32> C 5.1194018033939575 -2.852525445170651 -2.339108482487651
| 33> H 4.708005948591129 -0.7618147316385969 -1.9215630216940465
| 34> H 5.392096109312398 -1.0687083790657779 -3.5270175630770138
| 35> H 6.116312843220143 -2.759573086196341 -1.8656213986471468
| 36> H 5.243594216529038 -3.4986078293003593 -3.2220302934091833
| 37> H 4.572516924967657 -4.532662204357026 -1.0967837031423475
| 38> H 4.177196205013805 -2.9595491229222173 -0.38657492697096585
| 39> C -1.9905212955507483 3.673040446939098 4.552836022143276
| 40> H -1.263131438336892 5.328817948240385 3.362442055628041
| 41> H -0.4205686916871119 3.795067566704479 3.040050937965898
| 42> H -3.058125535403997 3.9491420880219374 4.595410462159909
| 43> H -1.494341729690971 4.165706054446971 5.415549620304392
| 44> H -0.8826032198060701 1.7949464291466561 4.444734664268119
| 45> H -2.0528128967535975 1.8915441285917076 5.782104655597851
| 46> *
| 47>
| 48> % eprnmr
| 49> gtensor true
| 50> Nuclei = all H {aiso,adip,aorb,fgrad,rho}
| 51> Nuclei = all V {aiso,adip,aorb,fgrad,rho}
| 52> end
| 53>
| 54>                          ****END OF INPUT****

CARTESIAN COORDINATES (ANGSTROEM)
---------------------------------
  V     -0.811238   -0.307709   -0.711101
  S     -0.998453    2.171296   -0.136287
  S      0.987799    0.320638   -2.082006
  S     -1.605636   -0.448339    1.710627
  S      0.365929   -2.293348   -0.269981
  O     -2.182378   -0.547915   -1.516926
  C      1.724645   -1.262916   -2.424195
  C      1.463353   -2.361263   -1.664596
  C     -1.767312    2.281017    1.451303
  C     -2.020066    1.192207    2.218667
  S      3.047833   -1.228526   -3.642453
  S      2.420278   -3.885408   -1.794013
  S     -3.080703    1.257821    3.692096
  S     -2.465785    3.916788    1.819268
  C      4.191036   -3.527922   -1.324632
  C     -1.877343    2.160095    4.728503
  C      4.685637   -1.450006   -2.776097
  C     -1.397525    4.240228    3.264753
  C      5.118520   -2.852826   -2.339844
  H      4.707124   -0.762115   -1.922298
  H      5.391214   -1.069009   -3.527753
  H      6.115431   -2.759874   -1.866356
  H      5.242712   -3.498909   -3.222765
  H      4.571635   -4.532963   -1.097519
  H      4.176314   -2.959850   -0.387310
  C     -1.991403    3.672740    4.552101
  H     -1.264013    5.328517    3.361707
  H     -0.421451    3.794767    3.039316
  H     -3.059008    3.948841    4.594675
  H     -1.495224    4.165405    5.414815
  H     -0.883485    1.794646    4.444000
  H     -2.053695    1.891243    5.781370

 Total Charge           Charge          ....   -2
 Multiplicity           Mult            ....    2
 Number of Electrons    NEL             ....  233
 Basis Dimension        Dim             ....  517

ORBITAL ENERGIES
----------------
                 SPIN UP ORBITALS
  NO   OCC          E(Eh)            E(eV)
   0   1.0000    -196.639979     -5350.8459
   1   1.0000     -88.681897     -2413.1571
   2   1.0000     -88.681024     -2413.1333
   3   1.0000     -88.671611     -2412.8772
   4   1.0000     -88.671500     -2412.8742
   5   1.0000     -88.619312     -2411.4541
   6   1.0000     -88.619057     -2411.4471
   7   1.0000     -88.605893     -2411.0889
   8   1.0000     -88.605877     -2411.0885
   9   1.0000     -22.015782      -599.0799
  10   1.0000     -18.855062      -513.0723
  11   1.0000     -18.522578      -504.0250
  12   1.0000     -18.516846      -503.8690
  13   1.0000     -18.516797      -503.8677
  14   1.0000     -10.023360      -272.7495
  15   1.0000     -10.023211      -272.7454
  16   1.0000     -10.013786      -272.4890
  17   1.0000     -10.008946      -272.3573
  18   1.0000     -10.008917      -272.3565
  19   1.0000      -9.999665      -272.1047
  20   1.0000      -9.998829      -272.0820
  21   1.0000      -9.997354      -272.0418
  22   1.0000      -9.985487      -271.7189
  23   1.0000      -9.984759      -271.6991
  24   1.0000      -7.735050      -210.4814
  25   1.0000      -7.734322      -210.4616
  26   1.0000      -7.725727      -210.2277
  27   1.0000      -7.725634      -210.2252
  28   1.0000      -7.674240      -208.8267
  29   1.0000      -7.674030      -208.8210
  30   1.0000      -7.659816      -208.4342
  31   1.0000      -7.659791      -208.4335
  32   1.0000      -5.700460      -155.1174
  33   1.0000      -5.699731      -155.0976
  34   1.0000      -5.696207      -155.0017
  35   1.0000      -5.695449      -154.9810
  36   1.0000      -5.690723      -154.8524
  37   1.0000      -5.690626      -154.8498
  38   1.0000      -5.689889      -154.8298
  39   1.0000      -5.689158      -154.8099
  40   1.0000      -5.687416      -154.7624
  41   1.0000      -5.687323      -154.7599
  42   1.0000      -5.680317      -154.5693
  43   1.0000      -5.680221      -154.5667
  44   1.0000      -5.639136      -153.4487
  45   1.0000      -5.638905      -153.4424
  46   1.0000      -5.632579      -153.2703
  47   1.0000      -5.632384      -153.2650
  48   1.0000      -5.632102      -153.2573
  49   1.0000      -5.631917      -153.2522
  50   1.0000      -5.624694      -153.0557
  51   1.0000      -5.624677      -153.0552
  52   1.0000      -5.618436      -152.8854
  53   1.0000      -5.618418      -152.8849
  54   1.0000      -5.617719      -152.8659
  55   1.0000      -5.617683      -152.8649
  56   1.0000      -2.409657       -65.5701
  57   1.0000      -1.449872       -39.4530
  58   1.0000      -1.439853       -39.1804
  59   1.0000      -1.438781       -39.1512
  60   1.0000      -0.644670       -17.5424
  61   1.0000      -0.643308       -17.5053
  62   1.0000      -0.615634       -16.7522
  63   1.0000      -0.601279       -16.3616
  64   1.0000      -0.584288       -15.8993
  65   1.0000      -0.576062       -15.6754
  66   1.0000      -0.575292       -15.6545
  67   1.0000      -0.496911       -13.5216
  68   1.0000      -0.494322       -13.4512
  69   1.0000      -0.482457       -13.1283
  70   1.0000      -0.476643       -12.9701
  71   1.0000      -0.429034       -11.6746
  72   1.0000      -0.418511       -11.3883
  73   1.0000      -0.412709       -11.2304
  74   1.0000      -0.399740       -10.8775
  75   1.0000      -0.377833       -10.2814
  76   1.0000      -0.373400       -10.1607
  77   1.0000      -0.300965        -8.1897
  78   1.0000      -0.284051        -7.7294
  79   1.0000      -0.278955        -7.5907
  80   1.0000      -0.271660        -7.3922
  81   1.0000      -0.265182        -7.2160
  82   1.0000      -0.254750        -6.9321
  83   1.0000      -0.246786        -6.7154
  84   1.0000      -0.227696        -6.1959
  85   1.0000      -0.201222        -5.4755
  86   1.0000      -0.193634        -5.2691
  87   1.0000      -0.191527        -5.2117
  88   1.0000      -0.189915        -5.1679
  89   1.0000      -0.187479        -5.1016
  90   1.0000      -0.182660        -4.9704
  91   1.0000      -0.174405        -4.7458
  92   1.0000      -0.149927        -4.0797
  93   1.0000      -0.149876        -4.0783
  94   1.0000      -0.147000        -4.0001
  95   1.0000      -0.142479        -3.8771
  96   1.0000      -0.137460        -3.7405
  97   1.0000      -0.096875        -2.6361
  98   1.0000      -0.096195        -2.6176
  99   1.0000      -0.087621        -2.3843
 100   1.0000      -0.082780        -2.2526
 101   1.0000      -0.082399        -2.2422
 102   1.0000      -0.074184        -2.0187
 103   1.0000      -0.068290        -1.8583
 104   1.0000      -0.051618        -1.4046
 105   1.0000      -0.047223        -1.2850
 106   1.0000      -0.037243        -1.0134
 107   1.0000      -0.034751        -0.9456
 108   1.0000      -0.023493        -0.6393
 109   1.0000      -0.012558        -0.3417
 110   1.0000      -0.007867        -0.2141
 111   1.0000      -0.004651        -0.1266
 112   1.0000       0.005450         0.1483
 113   1.0000       0.017911         0.4874
 114   1.0000       0.018385         0.5003
 115   1.0000       0.029542         0.8039
 116   1.0000       0.062151         1.6912
 117   0.0000       0.176880         4.8132
 118   0.0000       0.190646         5.1877
 119   0.0000       0.196781         5.3547
 120   0.0000       0.200607         5.4588
 121   0.0000       0.206214         5.6114

                 SPIN DOWN ORBITALS
  NO   OCC          E(Eh)            E(eV)
   0   1.0000    -196.640111     -5350.8494
   1   1.0000     -88.681901     -2413.1572
   2   1.0000     -88.681027     -2413.1334
   3   1.0000     -88.671629     -2412.8777
   4   1.0000     -88.671517     -2412.8747
   5   1.0000     -88.619478     -2411.4586
   6   1.0000     -88.619221     -2411.4516
   7   1.0000     -88.606054     -2411.0933
   8   1.0000     -88.606039     -2411.0929
   9   1.0000     -22.001075      -598.6797
  10   1.0000     -18.858773      -513.1733
  11   1.0000     -18.517369      -503.8832
  12   1.0000     -18.501274      -503.4453
  13   1.0000     -18.500711      -503.4300
  14   1.0000     -10.023347      -272.7491
  15   1.0000     -10.023199      -272.7451
  16   1.0000     -10.013785      -272.4889
  17   1.0000     -10.008945      -272.3572
  18   1.0000     -10.008916      -272.3565
  19   1.0000      -9.999264      -272.0938
  20   1.0000      -9.998429      -272.0711
  21   1.0000      -9.997355      -272.0419
  22   1.0000      -9.985338      -271.7149
  23   1.0000      -9.984611      -271.6951
  24   1.0000      -7.735055      -210.4815
  25   1.0000      -7.734325      -210.4617
  26   1.0000      -7.725746      -210.2282
  27   1.0000      -7.725652      -210.2257
  28   1.0000      -7.674389      -208.8307
  29   1.0000      -7.674177      -208.8250
  30   1.0000      -7.659969      -208.4384
  31   1.0000      -7.659945      -208.4377
  32   1.0000      -5.700469      -155.1176
  33   1.0000      -5.699739      -155.0978
  34   1.0000      -5.696216      -155.0019
  35   1.0000      -5.695456      -154.9813
  36   1.0000      -5.690745      -154.8530
  37   1.0000      -5.690648      -154.8504
  38   1.0000      -5.689891      -154.8298
  39   1.0000      -5.689158      -154.8099
  40   1.0000      -5.687438      -154.7631
  41   1.0000      -5.687346      -154.7605
  42   1.0000      -5.680346      -154.5701
  43   1.0000      -5.680249      -154.5674
  44   1.0000      -5.639333      -153.4540
  45   1.0000      -5.639101      -153.4477
  46   1.0000      -5.632946      -153.2803
  47   1.0000      -5.632744      -153.2747
  48   1.0000      -5.632267      -153.2618
  49   1.0000      -5.632085      -153.2568
  50   1.0000      -5.624849      -153.0599
  51   1.0000      -5.624832      -153.0595
  52   1.0000      -5.618859      -152.8969
  53   1.0000      -5.618843      -152.8965
  54   1.0000      -5.617837      -152.8691
  55   1.0000      -5.617801      -152.8681
  56   1.0000      -2.365337       -64.3641
  57   1.0000      -1.430702       -38.9314
  58   1.0000      -1.378203       -37.5028
  59   1.0000      -1.378005       -37.4974
  60   1.0000      -0.644550       -17.5391
  61   1.0000      -0.643300       -17.5051
  62   1.0000      -0.623704       -16.9719
  63   1.0000      -0.600932       -16.3522
  64   1.0000      -0.584235       -15.8978
  65   1.0000      -0.575973       -15.6730
  66   1.0000      -0.575332       -15.6556
  67   1.0000      -0.496774       -13.5179
  68   1.0000      -0.494106       -13.4453
  69   1.0000      -0.482614       -13.1326
  70   1.0000      -0.476840       -12.9755
  71   1.0000      -0.429183       -11.6787
  72   1.0000      -0.418434       -11.3862
  73   1.0000      -0.413073       -11.2403
  74   1.0000      -0.399901       -10.8818
  75   1.0000      -0.377759       -10.2793
  76   1.0000      -0.373476       -10.1628
  77   1.0000      -0.300914        -8.1883
  78   1.0000      -0.284051        -7.7294
  79   1.0000      -0.278902        -7.5893
  80   1.0000      -0.271675        -7.3927
  81   1.0000      -0.264797        -7.2055
  82   1.0000      -0.254779        -6.9329
  83   1.0000      -0.246707        -6.7132
  84   1.0000      -0.227654        -6.1948
  85   1.0000      -0.200796        -5.4639
  86   1.0000      -0.193521        -5.2660
  87   1.0000      -0.191527        -5.2117
  88   1.0000      -0.189741        -5.1631
  89   1.0000      -0.186976        -5.0879
  90   1.0000      -0.180895        -4.9224
  91   1.0000      -0.174189        -4.7399
  92   1.0000      -0.149499        -4.0681
  93   1.0000      -0.149257        -4.0615
  94   1.0000      -0.146674        -3.9912
  95   1.0000      -0.142336        -3.8732
  96   1.0000      -0.137393        -3.7387
  97   1.0000      -0.095743        -2.6053
  98   1.0000      -0.095461        -2.5976
  99   1.0000      -0.087468        -2.3801
 100   1.0000      -0.082829        -2.2539
 101   1.0000      -0.082785        -2.2527
 102   1.0000      -0.075227        -2.0470
 103   1.0000      -0.069256        -1.8846
 104   1.0000      -0.049483        -1.3465
 105   1.0000      -0.046352        -1.2613
 106   1.0000      -0.036187        -0.9847
 107   1.0000      -0.034307        -0.9335
 108   1.0000      -0.023389        -0.6364
 109   1.0000      -0.009868        -0.2685
 110   1.0000      -0.007870        -0.2141
 111   1.0000      -0.004643        -0.1264
 112   1.0000       0.005288         0.1439
 113   1.0000       0.019651         0.5347
 114   1.0000       0.029717         0.8086
 115   1.0000       0.061075         1.6619
 116   0.0000       0.178432         4.8554
 117   0.0000       0.184464         5.0195
 118   0.0000       0.190886         5.1943
 119   0.0000       0.197907         5.3853
 120   0.0000       0.201235         5.4759

MULLIKEN ATOMIC CHARGES AND SPIN POPULATIONS
--------------------------------------------
   0 V :    0.444239    1.203405
   1 S :   -0.279454   -0.023442
   2 S :   -0.225671   -0.027205
   3 S :   -0.280029   -0.023235
   4 S :   -0.225950   -0.026814
   5 O :   -0.508793   -0.143672
   6 C :   -0.119204    0.014828
   7 C :   -0.115477    0.014715
   8 C :   -0.112550    0.004831
   9 C :   -0.114453    0.004856
  10 S :   -0.046729    0.001191
  11 S :   -0.045818    0.001019
  12 S :   -0.045446   -0.001144
  13 S :   -0.045666   -0.001132
  14 C :   -0.322577    0.000688
  15 C :   -0.354461    0.000123
  16 C :   -0.319829    0.000681
  17 C :   -0.353451    0.000123
  18 C :   -0.086548    0.000166
  19 H :    0.137123   -0.000051
  20 H :    0.098947    0.000060
  21 H :    0.052621    0.000217
  22 H :    0.074018    0.000047
  23 H :    0.099207    0.000063
  24 H :    0.138228   -0.000059
  25 C :   -0.088811    0.000025
  26 H :    0.103920   -0.000039
  27 H :    0.158700   -0.000121
  28 H :    0.087179    0.000032
  29 H :    0.033564    0.000005
  30 H :    0.159238   -0.000122
  31 H :    0.103933   -0.000039
Sum of atomic charges         :   -2.0000000

LOEWDIN ATOMIC CHARGES AND SPIN POPULATIONS
-------------------------------------------
   0 V :   -0.247373    1.155950
   1 S :    0.057508   -0.017999
   2 S :    0.124430   -0.016074
   3 S :    0.056949   -0.017849
   4 S :    0.124942   -0.015818
   5 O :   -0.360041   -0.129068
   6 C :   -0.549427    0.015451
   7 C :   -0.547443    0.015408
   8 C :   -0.551855    0.005859
   9 C :   -0.551983    0.005915
  10 S :    0.335577    0.000313
  11 S :    0.334048    0.000169
  12 S :    0.334185   -0.001767
  13 S :    0.334429   -0.001755
  14 C :   -0.293904    0.000546
  15 C :   -0.294798    0.000047
  16 C :   -0.294228    0.000544
  17 C :   -0.294871    0.000046
  18 C :   -0.179796    0.000009
  19 H :    0.063204    0.000030
  20 H :    0.050938    0.000064
  21 H :    0.051908    0.000141
  22 H :    0.053858    0.000028
  23 H :    0.050827    0.000067
  24 H :    0.063493    0.000025
  25 C :   -0.195192   -0.000067
  26 H :    0.043942   -0.000039
  27 H :    0.070463   -0.000061
  28 H :    0.054282    0.000001
  29 H :    0.041414   -0.000016
  30 H :    0.070578   -0.000061
  31 H :    0.043938   -0.000039

  Mayer bond orders larger than 0.100000
B(  0-V ,  1-S ) :   0.7291 B(  0-V ,  2-S ) :   0.8534 B(  0-V ,  3-S ) :   0.7302
B(  0-V ,  4-S ) :   0.8506 B(  0-V ,  5-O ) :   2.1001 B(  1-S ,  8-C ) :   1.1542
B(  2-S ,  6-C ) :   1.1173 B(  3-S ,  9-C ) :   1.1546 B(  4-S ,  7-C ) :   1.1201
B(  6-C ,  7-C ) :   1.5402 B(  6-C , 10-S ) :   0.9909 B(  7-C , 11-S ) :   0.9883
B(  8-C ,  9-C ) :   1.4776 B(  8-C , 13-S ) :   0.8878 B(  9-C , 12-S ) :   0.8884
B( 10-S , 16-C ) :   1.0025 B( 11-S , 14-C ) :   1.0051 B( 12-S , 15-C ) :   1.0029
B( 13-S , 17-C ) :   1.0028 B( 14-C , 18-C ) :   0.8866 B( 14-C , 23-H ) :   0.9723
B( 14-C , 24-H ) :   0.9703 B( 15-C , 25-C ) :   0.8630 B( 15-C , 30-H ) :   0.9842
B( 15-C , 31-H ) :   0.9622 B( 16-C , 18-C ) :   0.8870 B( 16-C , 19-H ) :   0.9701
B( 16-C , 20-H ) :   0.9724 B( 17-C , 25-C ) :   0.8632 B( 17-C , 26-H ) :   0.9623
B( 17-C , 27-H ) :   0.9841 B( 18-C , 21-H ) :   0.9586 B( 18-C , 22-H ) :   0.9730
B( 25-C , 28-H ) :   0.9761 B( 25-C , 29-H ) :   0.9411

FINAL SINGLE POINT ENERGY     -4592.699848495027

DIPOLE MOMENT
-------------
                                X             Y             Z
Electronic contribution:    -20.72025      -6.09927     -15.58814
Nuclear contribution   :     23.48454       6.43060      16.99424
                        -----------------------------------------
Total Dipole Moment    :      2.76429       0.33133       1.40610
                        -----------------------------------------
Magnitude (a.u.)       :      3.11900
Magnitude (Debye)      :      7.92787

Rotational constants in cm-1:     0.012802     0.002549     0.002432
Rotational constants in MHz :   383.788185    76.415204    72.924194

                             ****ORCA TERMINATED NORMALLY****
TOTAL RUN TIME: 0 days 0 hours 43 minutes 27 seconds 528 msec
