                         Program Version 5.0.4 -  RELEASE  -
|  1> ! nofrozencore ReducedPop printbasis
|  2> ! B3LYP TZVP
|  3>
|  4> %basis
|  5> newgto V "CP(PPP)" end
|  6> end
|  7>
|  8> %pal
|  9> nprocs 8
| 10> end
| 11>
| 12> % sym SymThresh 1e-2 end
| 13> * xyz -2 2
| 14> V -0.17523208416758218 -0.9801554235685013 0.5027500158026225
| 15> S -2.2283574258239 -0.3836368914292979 -0.6789634039172848
| 16> S 0.8710111499303104 -1.4264514993440638 -1.6575370032811185
| 17> S -0.8773294271071324 0.8044645332234552 2.04117331234818
| 18> S 2.0821956101362566 -0.22056105764402842 1.1198721027569396
| 19> O -0.42224419060921725 -2.3738765689234063 1.2416208279354863
| 20> C 2.5124646863971676 -1.476473707413312 -1.5673648566984562
| 21> C 2.9827259336998604 -0.9675288799331861 -0.395901291085961
| 22> C -3.2605885535934997 0.48514210853558487 0.27405960306235744
| 23> C -2.667072434814891 0.9627962283870191 1.4019027794680703
| 24> S 3.5506236255667876 -2.0278957591606384 -2.6922982196315575
| 25> S 4.918540543734014 -0.8172017123949246 0.06584740456161337
| 26> S -3.5863516572599408 2.0836833632581393 2.755886480784018
| 27> S -4.834212475337645 0.8117129817277442 -0.031670810228646554
| 28> C 5.465200177055087 0.39776801268394274 -1.174598115710862
| 29> C -3.9102273225405693 3.5897182307365236 1.7838847477359774
| 30> C 4.420216664645572 -0.5079265769494274 -3.3591674568886867
| 31> C -4.892655586468834 2.6433036957195664 -0.41320650002218856
| 32> C 5.686844007352917 -0.10189260791563169 -2.5973459909593037
| 33> H 3.6961596832074344 0.30521299415304587 -3.48892815623166
| 34> H 4.733944200639322 -0.8602420474222409 -4.354475032623348
| 35> H 6.1770849658576585 0.703033742596826 -3.168722358433535
| 36> H 6.370857032439976 -0.9589088576260758 -2.602571630584708
| 37> H 6.3651881168609625 0.9017060461742852 -0.7874822433678877
| 38> H 4.662792034201972 1.146347452403763 -1.2007442693434047
| 39> C -5.078318849745997 3.55359137200486 0.8054010615551208
| 40> H -5.809314428462658 2.710156655017626 -1.0186814928407475
| 41> H -4.038590593648635 2.9133313916006385 -1.0446737112328672
| 42> H -5.997723048345672 3.2468112875208597 1.3179707223869692
| 43> H -5.244395585098425 4.578301652006568 0.43529179753366715
| 44> H -2.989305969629027 3.757098162637784 1.2117239724347475
| 45> H -4.0120142245637735 4.430555226328777 2.487016517430613
| 46> *
| 47>
| 48> % eprnmr
| 49> gtensor true
| 50> Nuclei = all H {aiso,adip,aorb,fgrad,rho}
| 51> Nuclei = all V {aiso,adip,aorb,fgrad,rho}
| 52> end
| 53>
| 54>                          ****END OF INPUT****

CARTESIAN COORDINATES (ANGSTROEM)
---------------------------------
  V     -0.175343   -0.981220    0.503263
  S     -2.228469   -0.384701   -0.678451
  S      0.870900   -1.427516   -1.657024
  S     -0.877441    0.803400    2.041686
  S      2.082084   -0.221626    1.120385
  O     -0.422355   -2.374941    1.242134
  C      2.512353   -1.477538   -1.566852
  C      2.982615   -0.968593   -0.395388
  C     -3.260700    0.484078    0.274572
  C     -2.667184    0.961732    1.402416
  S      3.550512   -2.028960   -2.691785
  S      4.918429   -0.818266    0.066360
  S     -3.586463    2.082619    2.756399
  S     -4.834324    0.810648   -0.031158
  C      5.465089    0.396703   -1.174085
  C     -3.910339    3.588654    1.784398
  C      4.420105   -0.508991   -3.358655
  C     -4.892767    2.642239   -0.412694
  C      5.686733   -0.102957   -2.596833
  H      3.696048    0.304148   -3.488415
  H      4.733833   -0.861307   -4.353962
  H      6.176974    0.701969   -3.168210
  H      6.370746   -0.959973   -2.602059
  H      6.365077    0.900641   -0.786969
  H      4.662681    1.145283   -1.200231
  C     -5.078430    3.552527    0.805914
  H     -5.809426    2.709092   -1.018169
  H     -4.038702    2.912267   -1.044161
  H     -5.997834    3.245747    1.318484
  H     -5.244507    4.577237    0.435805
  H     -2.989417    3.756034    1.212237
  H     -4.012126    4.429491    2.487529

 Total Charge           Charge          ....   -2
 Multiplicity           Mult            ....    2
 Number of Electrons    NEL             ....  233
 Basis Dimension        Dim             ....  517

ORBITAL ENERGIES
----------------
                 SPIN UP ORBITALS
  NO   OCC          E(Eh)            E(eV)
   0   1.0000    -196.643258     -5350.9351
   1   1.0000     -88.677003     -2413.0239
   2   1.0000     -88.676789     -2413.0181
   3   1.0000     -88.669853     -2412.8294
   4   1.0000     -88.669112     -2412.8092
   5   1.0000     -88.622240     -2411.5338
   6   1.0000     -88.621778     -2411.5212
   7   1.0000     -88.607782     -2411.1403
   8   1.0000     -88.607689     -2411.1378
   9   1.0000     -22.018732      -599.1601
  10   1.0000     -18.860033      -513.2076
  11   1.0000     -18.525621      -504.1078
  12   1.0000     -18.519781      -503.9489
  13   1.0000     -18.519736      -503.9476
  14   1.0000     -10.019737      -272.6509
  15   1.0000     -10.019523      -272.6451
  16   1.0000     -10.011122      -272.4165
  17   1.0000     -10.010806      -272.4079
  18   1.0000     -10.004294      -272.2307
  19   1.0000     -10.004186      -272.2277
  20   1.0000     -10.003979      -272.2221
  21   1.0000     -10.003181      -272.2004
  22   1.0000      -9.984936      -271.7039
  23   1.0000      -9.984569      -271.6939
  24   1.0000      -7.734166      -210.4573
  25   1.0000      -7.734127      -210.4563
  26   1.0000      -7.722086      -210.1287
  27   1.0000      -7.721286      -210.1069
  28   1.0000      -7.673514      -208.8069
  29   1.0000      -7.673197      -208.7983
  30   1.0000      -7.666211      -208.6082
  31   1.0000      -7.666031      -208.6033
  32   1.0000      -5.699248      -155.0844
  33   1.0000      -5.699227      -155.0838
  34   1.0000      -5.695030      -154.9697
  35   1.0000      -5.695026      -154.9695
  36   1.0000      -5.688768      -154.7993
  37   1.0000      -5.688747      -154.7987
  38   1.0000      -5.687187      -154.7562
  39   1.0000      -5.686368      -154.7339
  40   1.0000      -5.683747      -154.6626
  41   1.0000      -5.682964      -154.6413
  42   1.0000      -5.676939      -154.4774
  43   1.0000      -5.676155      -154.4560
  44   1.0000      -5.639167      -153.4495
  45   1.0000      -5.638795      -153.4394
  46   1.0000      -5.631967      -153.2536
  47   1.0000      -5.631646      -153.2449
  48   1.0000      -5.631228      -153.2335
  49   1.0000      -5.630928      -153.2253
  50   1.0000      -5.630473      -153.2130
  51   1.0000      -5.630330      -153.2091
  52   1.0000      -5.624500      -153.0504
  53   1.0000      -5.624333      -153.0459
  54   1.0000      -5.624114      -153.0399
  55   1.0000      -5.623953      -153.0355
  56   1.0000      -2.412539       -65.6485
  57   1.0000      -1.454112       -39.5684
  58   1.0000      -1.442226       -39.2450
  59   1.0000      -1.441241       -39.2182
  60   1.0000      -0.653783       -17.7903
  61   1.0000      -0.652593       -17.7579
  62   1.0000      -0.621003       -16.8984
  63   1.0000      -0.614001       -16.7078
  64   1.0000      -0.612918       -16.6783
  65   1.0000      -0.565397       -15.3852
  66   1.0000      -0.564606       -15.3637
  67   1.0000      -0.501655       -13.6507
  68   1.0000      -0.499803       -13.6003
  69   1.0000      -0.477735       -12.9998
  70   1.0000      -0.475646       -12.9430
  71   1.0000      -0.431888       -11.7523
  72   1.0000      -0.429804       -11.6955
  73   1.0000      -0.406132       -11.0514
  74   1.0000      -0.398998       -10.8573
  75   1.0000      -0.376352       -10.2411
  76   1.0000      -0.373769       -10.1708
  77   1.0000      -0.294334        -8.0092
  78   1.0000      -0.294035        -8.0011
  79   1.0000      -0.281573        -7.6620
  80   1.0000      -0.280846        -7.6422
  81   1.0000      -0.254899        -6.9362
  82   1.0000      -0.250893        -6.8271
  83   1.0000      -0.242197        -6.5905
  84   1.0000      -0.239950        -6.5294
  85   1.0000      -0.197914        -5.3855
  86   1.0000      -0.192824        -5.2470
  87   1.0000      -0.190847        -5.1932
  88   1.0000      -0.187931        -5.1139
  89   1.0000      -0.186970        -5.0877
  90   1.0000      -0.183612        -4.9963
  91   1.0000      -0.182940        -4.9781
  92   1.0000      -0.161045        -4.3822
  93   1.0000      -0.158364        -4.3093
  94   1.0000      -0.155297        -4.2259
  95   1.0000      -0.139518        -3.7965
  96   1.0000      -0.132789        -3.6134
  97   1.0000      -0.099841        -2.7168
  98   1.0000      -0.094723        -2.5775
  99   1.0000      -0.092455        -2.5158
 100   1.0000      -0.085888        -2.3371
 101   1.0000      -0.081790        -2.2256
 102   1.0000      -0.080129        -2.1804
 103   1.0000      -0.071934        -1.9574
 104   1.0000      -0.049311        -1.3418
 105   1.0000      -0.041986        -1.1425
 106   1.0000      -0.036872        -1.0033
 107   1.0000      -0.029724        -0.8088
 108   1.0000      -0.024357        -0.6628
 109   1.0000      -0.009925        -0.2701
 110   1.0000      -0.005610        -0.1527
 111   1.0000      -0.001266        -0.0344
 112   1.0000       0.006795         0.1849
 113   1.0000       0.007221         0.1965
 114   1.0000       0.018287         0.4976
 115   1.0000       0.032695         0.8897
 116   1.0000       0.057821         1.5734
 117   0.0000       0.181199         4.9307
 118   0.0000       0.188157         5.1200
 119   0.0000       0.195959         5.3323
 120   0.0000       0.196286         5.3412
 121   0.0000       0.208153         5.6641

                 SPIN DOWN ORBITALS
  NO   OCC          E(Eh)            E(eV)
   0   1.0000    -196.643394     -5350.9388
   1   1.0000     -88.677016     -2413.0243
   2   1.0000     -88.676802     -2413.0185
   3   1.0000     -88.669862     -2412.8296
   4   1.0000     -88.669122     -2412.8095
   5   1.0000     -88.622440     -2411.5392
   6   1.0000     -88.621977     -2411.5266
   7   1.0000     -88.607902     -2411.1436
   8   1.0000     -88.607807     -2411.1410
   9   1.0000     -22.004044      -598.7605
  10   1.0000     -18.863585      -513.3042
  11   1.0000     -18.520470      -503.9676
  12   1.0000     -18.504311      -503.5279
  13   1.0000     -18.503545      -503.5071
  14   1.0000     -10.019734      -272.6508
  15   1.0000     -10.019518      -272.6450
  16   1.0000     -10.011120      -272.4164
  17   1.0000     -10.010803      -272.4078
  18   1.0000     -10.004294      -272.2307
  19   1.0000     -10.004185      -272.2277
  20   1.0000     -10.003689      -272.2142
  21   1.0000     -10.002898      -272.1927
  22   1.0000      -9.984723      -271.6981
  23   1.0000      -9.984360      -271.6883
  24   1.0000      -7.734179      -210.4577
  25   1.0000      -7.734141      -210.4567
  26   1.0000      -7.722097      -210.1289
  27   1.0000      -7.721296      -210.1071
  28   1.0000      -7.673701      -208.8120
  29   1.0000      -7.673383      -208.8034
  30   1.0000      -7.666321      -208.6112
  31   1.0000      -7.666143      -208.6064
  32   1.0000      -5.699265      -155.0849
  33   1.0000      -5.699244      -155.0843
  34   1.0000      -5.695054      -154.9703
  35   1.0000      -5.695050      -154.9702
  36   1.0000      -5.688779      -154.7995
  37   1.0000      -5.688760      -154.7990
  38   1.0000      -5.687198      -154.7565
  39   1.0000      -5.686379      -154.7342
  40   1.0000      -5.683759      -154.6629
  41   1.0000      -5.682976      -154.6416
  42   1.0000      -5.676955      -154.4778
  43   1.0000      -5.676172      -154.4565
  44   1.0000      -5.639377      -153.4553
  45   1.0000      -5.639002      -153.4451
  46   1.0000      -5.632470      -153.2673
  47   1.0000      -5.632147      -153.2585
  48   1.0000      -5.631385      -153.2378
  49   1.0000      -5.631086      -153.2296
  50   1.0000      -5.630608      -153.2166
  51   1.0000      -5.630467      -153.2128
  52   1.0000      -5.624773      -153.0579
  53   1.0000      -5.624615      -153.0536
  54   1.0000      -5.624218      -153.0428
  55   1.0000      -5.624058      -153.0384
  56   1.0000      -2.368333       -64.4456
  57   1.0000      -1.435065       -39.0501
  58   1.0000      -1.381071       -37.5808
  59   1.0000      -1.380198       -37.5571
  60   1.0000      -0.653680       -17.7875
  61   1.0000      -0.652494       -17.7553
  62   1.0000      -0.628554       -17.1038
  63   1.0000      -0.613956       -16.7066
  64   1.0000      -0.612854       -16.6766
  65   1.0000      -0.565355       -15.3841
  66   1.0000      -0.564565       -15.3626
  67   1.0000      -0.501699       -13.6519
  68   1.0000      -0.499868       -13.6021
  69   1.0000      -0.477736       -12.9999
  70   1.0000      -0.475635       -12.9427
  71   1.0000      -0.431985       -11.7549
  72   1.0000      -0.429949       -11.6995
  73   1.0000      -0.406327       -11.0567
  74   1.0000      -0.399288       -10.8652
  75   1.0000      -0.376283       -10.2392
  76   1.0000      -0.373773       -10.1709
  77   1.0000      -0.294304        -8.0084
  78   1.0000      -0.294024        -8.0008
  79   1.0000      -0.281532        -7.6609
  80   1.0000      -0.280839        -7.6420
  81   1.0000      -0.254702        -6.9308
  82   1.0000      -0.250847        -6.8259
  83   1.0000      -0.242104        -6.5880
  84   1.0000      -0.239886        -6.5276
  85   1.0000      -0.197020        -5.3612
  86   1.0000      -0.192789        -5.2460
  87   1.0000      -0.190508        -5.1840
  88   1.0000      -0.187870        -5.1122
  89   1.0000      -0.186538        -5.0760
  90   1.0000      -0.183431        -4.9914
  91   1.0000      -0.182108        -4.9554
  92   1.0000      -0.160653        -4.3716
  93   1.0000      -0.157958        -4.2983
  94   1.0000      -0.154959        -4.2167
  95   1.0000      -0.139163        -3.7868
  96   1.0000      -0.132550        -3.6069
  97   1.0000      -0.098362        -2.6766
  98   1.0000      -0.093401        -2.5416
  99   1.0000      -0.092401        -2.5144
 100   1.0000      -0.086011        -2.3405
 101   1.0000      -0.083060        -2.2602
 102   1.0000      -0.080060        -2.1786
 103   1.0000      -0.073262        -1.9936
 104   1.0000      -0.046873        -1.2755
 105   1.0000      -0.041459        -1.1281
 106   1.0000      -0.035490        -0.9657
 107   1.0000      -0.029338        -0.7983
 108   1.0000      -0.023376        -0.6361
 109   1.0000      -0.008823        -0.2401
 110   1.0000      -0.005923        -0.1612
 111   1.0000      -0.000417        -0.0114
 112   1.0000       0.007856         0.2138
 113   1.0000       0.010047         0.2734
 114   1.0000       0.032954         0.8967
 115   1.0000       0.057067         1.5529
 116   0.0000       0.178055         4.8451
 117   0.0000       0.186362         5.0712
 118   0.0000       0.188688         5.1345
 119   0.0000       0.196228         5.3396
 120   0.0000       0.196894         5.3578

MULLIKEN ATOMIC CHARGES AND SPIN POPULATIONS
--------------------------------------------
   0 V :    0.439195    1.196771
   1 S :   -0.233997   -0.014048
   2 S :   -0.232504   -0.013500
   3 S :   -0.258335   -0.034306
   4 S :   -0.258145   -0.034474
   5 O :   -0.502043   -0.137729
   6 C :   -0.108167    0.003763
   7 C :   -0.128982    0.014228
   8 C :   -0.109406    0.004224
   9 C :   -0.127393    0.013713
  10 S :   -0.004938    0.000385
  11 S :   -0.096150   -0.000215
  12 S :   -0.092773   -0.000195
  13 S :   -0.006512    0.000252
  14 C :   -0.340086    0.000025
  15 C :   -0.338495    0.000023
  16 C :   -0.330802    0.000349
  17 C :   -0.330981    0.000409
  18 C :   -0.078112    0.000153
  19 H :    0.143524   -0.000092
  20 H :    0.094647   -0.000019
  21 H :    0.045155    0.000068
  22 H :    0.076880    0.000015
  23 H :    0.102124    0.000048
  24 H :    0.146436   -0.000007
  25 C :   -0.080189    0.000157
  26 H :    0.095147   -0.000008
  27 H :    0.144141   -0.000100
  28 H :    0.077198    0.000010
  29 H :    0.045135    0.000062
  30 H :    0.146279   -0.000006
  31 H :    0.102149    0.000045
Sum of atomic charges         :   -2.0000000

LOEWDIN ATOMIC CHARGES AND SPIN POPULATIONS
-------------------------------------------
   0 V :   -0.241127    1.151141
   1 S :    0.143767   -0.008326
   2 S :    0.147902   -0.007896
   3 S :    0.043618   -0.024680
   4 S :    0.041497   -0.024820
   5 O :   -0.348141   -0.123378
   6 C :   -0.663349    0.007339
   7 C :   -0.444973    0.012844
   8 C :   -0.656964    0.007567
   9 C :   -0.450847    0.012457
  10 S :    0.415116   -0.000582
  11 S :    0.249041   -0.000813
  12 S :    0.254923   -0.000818
  13 S :    0.411205   -0.000677
  14 C :   -0.316014    0.000132
  15 C :   -0.314444    0.000129
  16 C :   -0.277541    0.000158
  17 C :   -0.278186    0.000208
  18 C :   -0.185187   -0.000023
  19 H :    0.066864   -0.000036
  20 H :    0.047434   -0.000019
  21 H :    0.047185    0.000026
  22 H :    0.053039    0.000013
  23 H :    0.048134    0.000035
  24 H :    0.064816    0.000013
  25 C :   -0.185150   -0.000028
  26 H :    0.047370   -0.000013
  27 H :    0.066892   -0.000036
  28 H :    0.053119    0.000011
  29 H :    0.047157    0.000026
  30 H :    0.064809    0.000011
  31 H :    0.048033    0.000034

  Mayer bond orders larger than 0.100000
B(  0-V ,  1-S ) :   0.7886 B(  0-V ,  2-S ) :   0.7886 B(  0-V ,  3-S ) :   0.7913
B(  0-V ,  4-S ) :   0.7885 B(  0-V ,  5-O ) :   2.1129 B(  1-S ,  8-C ) :   1.1785
B(  2-S ,  6-C ) :   1.1805 B(  3-S ,  9-C ) :   1.0922 B(  4-S ,  7-C ) :   1.0910
B(  6-C ,  7-C ) :   1.4376 B(  6-C , 10-S ) :   1.0763 B(  7-C , 11-S ) :   0.8721
B(  8-C ,  9-C ) :   1.4465 B(  8-C , 13-S ) :   1.0693 B(  9-C , 12-S ) :   0.8770
B( 10-S , 16-C ) :   0.9596 B( 11-S , 14-C ) :   1.0437 B( 12-S , 15-C ) :   1.0413
B( 13-S , 17-C ) :   0.9622 B( 14-C , 18-C ) :   0.8648 B( 14-C , 23-H ) :   0.9603
B( 14-C , 24-H ) :   0.9851 B( 15-C , 25-C ) :   0.8659 B( 15-C , 30-H ) :   0.9843
B( 15-C , 31-H ) :   0.9609 B( 16-C , 18-C ) :   0.8929 B( 16-C , 19-H ) :   0.9642
B( 16-C , 20-H ) :   0.9795 B( 17-C , 25-C ) :   0.8920 B( 17-C , 26-H ) :   0.9791
B( 17-C , 27-H ) :   0.9647 B( 18-C , 21-H ) :   0.9529 B( 18-C , 22-H ) :   0.9723
B( 25-C , 28-H ) :   0.9728 B( 25-C , 29-H ) :   0.9528

FINAL SINGLE POINT ENERGY     -4592.625353919291

DIPOLE MOMENT
-------------
                                X             Y             Z
Electronic contribution:     -4.15235     -23.45548      12.16821
Nuclear contribution   :      4.47890      25.98318     -13.78868
                        -----------------------------------------
Total Dipole Moment    :      0.32655       2.52770      -1.62047
                        -----------------------------------------
Magnitude (a.u.)       :      3.02023
Magnitude (Debye)      :      7.67682

Rotational constants in cm-1:     0.012749     0.002548     0.002430
Rotational constants in MHz :   382.203424    76.393542    72.856094

                             ****ORCA TERMINATED NORMALLY****
TOTAL RUN TIME: 0 days 0 hours 27 minutes 29 seconds 185 msec
