                         Program Version 5.0.4 -  RELEASE  -
|  1> ! nofrozencore ReducedPop printbasis
|  2> ! B3LYP TZVP
|  3>
|  4> %basis
|  5> newgto V "CP(PPP)" end
|  6> end
|  7>
|  8> %pal
|  9> nprocs 4
| 10> end
| 11>
| 12> % sym SymThresh 1e-2 end
| 13> * xyz -2 2
| 14> V -0.14011273621954673 1.0888455406358266 -0.1972883107422893
| 15> S -0.8135219685074863 0.6604893512247749 2.1197581885331593
| 16> S 2.153503630012276 0.7539723669978108 0.593143210690866
| 17> S -2.2440819166248045 -0.04989814919201412 -0.722472679214069
| 18> S 0.7208618674986589 0.07402855499707583 -2.255524982777932
| 19> O -0.3436358014908846 2.6479595930885655 -0.4745731032137779
| 20> C 3.074723064496228 0.436182331835967 -0.8822718173584969
| 21> C 2.4772642334364923 0.15134755345209536 -2.0694081952602716
| 22> C -2.528173589369662 0.24868774483375444 1.9955142577699667
| 23> C -3.1248615983351016 -0.0474234324390972 0.8107386751569785
| 24> S 4.8668502559712845 0.490040479256784 -0.6813429291091402
| 25> S 3.4136907688232867 -0.20878362970862854 -3.5690038745884505
| 26> S -4.86563469525018 -0.5046450229203879 0.6837663815042154
| 27> S -3.4143063749217015 0.21686877226655019 3.5673030262854915
| 28> C 4.227173016741961 -1.8185187651004617 -3.172100838076741
| 29> C -4.92318213452315 -2.138159700274859 1.540542629075098
| 30> C 5.36377239536556 -1.2724959193822567 -0.9182460834176823
| 31> C -3.7931391770484164 -1.5754806598933226 3.7879524798515583
| 32> C 5.52737809362597 -1.7509904076279903 -2.364452327062128
| 33> H 4.63172629465458 -1.8912495478355529 -0.3788283816468463
| 34> H 6.339741813951355 -1.3639256194991998 -0.3921987404409976
| 35> H 5.906711295282658 -2.6006590954278592 -2.349865500699478
| 36> H 6.214030247814171 -1.1035754303251302 -2.867523555397282
| 37> H 4.437591034620389 -2.2804761021232554 -4.162040931264667
| 38> H 3.478710344038349 -2.442559046802311 -2.662120287313437
| 39> C -5.041577698138586 -2.1423703232885125 3.0793895709868075
| 40> H -3.9387621418862784 -1.7043760931066976 4.932087441354599
| 41> H -2.8749670829389737 -2.1463736080548075 3.4939463137186526
| 42> H -5.819036527756783 -1.5705438278276145 3.3270208942773234
| 43> H -5.120200983649695 -2.566487892800803 3.2252036178836203
| 44> H -4.0229085467854215 -2.717005816937368 1.2094411168532824
| 45> H -5.861868903550232 -2.6639029152379736 1.1055206079845048
| 46> *
| 47>
| 48> % eprnmr
| 49> gtensor true
| 50> Nuclei = all H {aiso,adip,aorb,fgrad,rho}
| 51> Nuclei = all V {aiso,adip,aorb,fgrad,rho}
| 52> end
| 53>
| 54>                          ****END OF INPUT****

CARTESIAN COORDINATES (ANGSTROEM)
---------------------------------
  V     -0.140186    1.090005   -0.197529
  S     -0.813596    0.661649    2.119517
  S      2.153430    0.755132    0.592902
  S     -2.244156   -0.048738   -0.722714
  S      0.720788    0.075188   -2.255766
  O     -0.343709    2.649119   -0.474814
  C      3.074649    0.437342   -0.882513
  C      2.477191    0.152507   -2.069649
  C     -2.528247    0.249848    1.995273
  C     -3.124935   -0.046264    0.810497
  S      4.866777    0.491200   -0.681584
  S      3.413617   -0.207624   -3.569245
  S     -4.865708   -0.503485    0.683525
  S     -3.414380    0.218029    3.567062
  C      4.227099   -1.817359   -3.172342
  C     -4.923256   -2.137000    1.540301
  C      5.363699   -1.271336   -0.918487
  C     -3.793213   -1.574321    3.787711
  C      5.527304   -1.749831   -2.364694
  H      4.631653   -1.890090   -0.379070
  H      6.339668   -1.362766   -0.392440
  H      5.906638   -2.599499   -2.350107
  H      6.213957   -1.102416   -2.867765
  H      4.437517   -2.279316   -4.162282
  H      3.478637   -2.441399   -2.662361
  C     -5.041651   -2.141210    3.079148
  H     -3.938836   -1.703216    4.931846
  H     -2.875041   -2.145214    3.493705
  H     -5.819110   -1.569384    3.326780
  H     -5.120275   -2.565328    3.224962
  H     -4.022982   -2.715846    1.209200
  H     -5.861943   -2.662743    1.105279

 Total Charge           Charge          ....   -2
 Multiplicity           Mult            ....    2
 Number of Electrons    NEL             ....  233
 Basis Dimension        Dim             ....  517

ORBITAL ENERGIES
----------------
                 SPIN UP ORBITALS
  NO   OCC          E(Eh)            E(eV)
   0   1.0000    -196.639588     -5350.8352
   1   1.0000     -88.676907     -2413.0213
   2   1.0000     -88.676903     -2413.0212
   3   1.0000     -88.675658     -2412.9873
   4   1.0000     -88.675622     -2412.9863
   5   1.0000     -88.611710     -2411.2472
   6   1.0000     -88.611564     -2411.2432
   7   1.0000     -88.611441     -2411.2399
   8   1.0000     -88.611356     -2411.2376
   9   1.0000     -22.015411      -599.0698
  10   1.0000     -18.856696      -513.1168
  11   1.0000     -18.522239      -504.0157
  12   1.0000     -18.516457      -503.8584
  13   1.0000     -18.516422      -503.8575
  14   1.0000     -10.046819      -273.3878
  15   1.0000     -10.024572      -272.7825
  16   1.0000     -10.024530      -272.7813
  17   1.0000     -10.016777      -272.5704
  18   1.0000     -10.016748      -272.5696
  19   1.0000      -9.991583      -271.8848
  20   1.0000      -9.991180      -271.8738
  21   1.0000      -9.990868      -271.8653
  22   1.0000      -9.990459      -271.8542
  23   1.0000      -9.982642      -271.6415
  24   1.0000      -7.730350      -210.3535
  25   1.0000      -7.730341      -210.3533
  26   1.0000      -7.729284      -210.3245
  27   1.0000      -7.729232      -210.3231
  28   1.0000      -7.666090      -208.6049
  29   1.0000      -7.665998      -208.6024
  30   1.0000      -7.665861      -208.5987
  31   1.0000      -7.665810      -208.5973
  32   1.0000      -5.695608      -154.9854
  33   1.0000      -5.695600      -154.9851
  34   1.0000      -5.694542      -154.9564
  35   1.0000      -5.694491      -154.9550
  36   1.0000      -5.691724      -154.8797
  37   1.0000      -5.691718      -154.8795
  38   1.0000      -5.690647      -154.8504
  39   1.0000      -5.690598      -154.8491
  40   1.0000      -5.685100      -154.6994
  41   1.0000      -5.685097      -154.6994
  42   1.0000      -5.684016      -154.6699
  43   1.0000      -5.683969      -154.6687
  44   1.0000      -5.630941      -153.2257
  45   1.0000      -5.630840      -153.2230
  46   1.0000      -5.630712      -153.2195
  47   1.0000      -5.630643      -153.2176
  48   1.0000      -5.624540      -153.0515
  49   1.0000      -5.624431      -153.0486
  50   1.0000      -5.624301      -153.0450
  51   1.0000      -5.624234      -153.0432
  52   1.0000      -5.624088      -153.0392
  53   1.0000      -5.623982      -153.0363
  54   1.0000      -5.623845      -153.0326
  55   1.0000      -5.623800      -153.0314
  56   1.0000      -2.409107       -65.5551
  57   1.0000      -1.450478       -39.4695
  58   1.0000      -1.438886       -39.1541
  59   1.0000      -1.437799       -39.1245
  60   1.0000      -0.664833       -18.0910
  61   1.0000      -0.646051       -17.5799
  62   1.0000      -0.617839       -16.8123
  63   1.0000      -0.608945       -16.5702
  64   1.0000      -0.596870       -16.2416
  65   1.0000      -0.573520       -15.6063
  66   1.0000      -0.570655       -15.5283
  67   1.0000      -0.518884       -14.1196
  68   1.0000      -0.497229       -13.5303
  69   1.0000      -0.485176       -13.2023
  70   1.0000      -0.481562       -13.1040
  71   1.0000      -0.427268       -11.6265
  72   1.0000      -0.420672       -11.4471
  73   1.0000      -0.416897       -11.3443
  74   1.0000      -0.413907       -11.2630
  75   1.0000      -0.379825       -10.3356
  76   1.0000      -0.374586       -10.1930
  77   1.0000      -0.332924        -9.0593
  78   1.0000      -0.296805        -8.0765
  79   1.0000      -0.285707        -7.7745
  80   1.0000      -0.280088        -7.6216
  81   1.0000      -0.258814        -7.0427
  82   1.0000      -0.253050        -6.8858
  83   1.0000      -0.239067        -6.5053
  84   1.0000      -0.235641        -6.4121
  85   1.0000      -0.207623        -5.6497
  86   1.0000      -0.197941        -5.3862
  87   1.0000      -0.190609        -5.1867
  88   1.0000      -0.187698        -5.1075
  89   1.0000      -0.186243        -5.0679
  90   1.0000      -0.180685        -4.9167
  91   1.0000      -0.179757        -4.8914
  92   1.0000      -0.150367        -4.0917
  93   1.0000      -0.149140        -4.0583
  94   1.0000      -0.144009        -3.9187
  95   1.0000      -0.142799        -3.8858
  96   1.0000      -0.142010        -3.8643
  97   1.0000      -0.097493        -2.6529
  98   1.0000      -0.095362        -2.5949
  99   1.0000      -0.090657        -2.4669
 100   1.0000      -0.084507        -2.2995
 101   1.0000      -0.080591        -2.1930
 102   1.0000      -0.079773        -2.1707
 103   1.0000      -0.069958        -1.9037
 104   1.0000      -0.049413        -1.3446
 105   1.0000      -0.037605        -1.0233
 106   1.0000      -0.037035        -1.0078
 107   1.0000      -0.034780        -0.9464
 108   1.0000      -0.031471        -0.8564
 109   1.0000      -0.012510        -0.3404
 110   1.0000      -0.003781        -0.1029
 111   1.0000      -0.002700        -0.0735
 112   1.0000       0.006636         0.1806
 113   1.0000       0.011149         0.3034
 114   1.0000       0.016777         0.4565
 115   1.0000       0.034030         0.9260
 116   1.0000       0.060197         1.6381
 117   0.0000       0.188523         5.1300
 118   0.0000       0.195947         5.3320
 119   0.0000       0.199403         5.4260
 120   0.0000       0.203158         5.5282
 121   0.0000       0.211725         5.7613

                 SPIN DOWN ORBITALS
  NO   OCC          E(Eh)            E(eV)
   0   1.0000    -196.639729     -5350.8391
   1   1.0000     -88.676920     -2413.0217
   2   1.0000     -88.676916     -2413.0216
   3   1.0000     -88.675671     -2412.9877
   4   1.0000     -88.675635     -2412.9867
   5   1.0000     -88.611870     -2411.2516
   6   1.0000     -88.611724     -2411.2476
   7   1.0000     -88.611602     -2411.2443
   8   1.0000     -88.611516     -2411.2419
   9   1.0000     -22.000741      -598.6706
  10   1.0000     -18.860273      -513.2141
  11   1.0000     -18.517109      -503.8761
  12   1.0000     -18.500967      -503.4369
  13   1.0000     -18.500284      -503.4183
  14   1.0000     -10.046819      -273.3878
  15   1.0000     -10.024568      -272.7824
  16   1.0000     -10.024526      -272.7812
  17   1.0000     -10.016774      -272.5703
  18   1.0000     -10.016745      -272.5695
  19   1.0000      -9.991328      -271.8779
  20   1.0000      -9.990925      -271.8669
  21   1.0000      -9.990616      -271.8585
  22   1.0000      -9.990206      -271.8473
  23   1.0000      -9.982641      -271.6415
  24   1.0000      -7.730364      -210.3539
  25   1.0000      -7.730355      -210.3536
  26   1.0000      -7.729298      -210.3249
  27   1.0000      -7.729246      -210.3235
  28   1.0000      -7.666238      -208.6089
  29   1.0000      -7.666146      -208.6065
  30   1.0000      -7.666010      -208.6027
  31   1.0000      -7.665958      -208.6013
  32   1.0000      -5.695624      -154.9858
  33   1.0000      -5.695616      -154.9856
  34   1.0000      -5.694558      -154.9568
  35   1.0000      -5.694508      -154.9554
  36   1.0000      -5.691745      -154.8802
  37   1.0000      -5.691738      -154.8801
  38   1.0000      -5.690667      -154.8509
  39   1.0000      -5.690618      -154.8496
  40   1.0000      -5.685116      -154.6999
  41   1.0000      -5.685113      -154.6998
  42   1.0000      -5.684033      -154.6704
  43   1.0000      -5.683986      -154.6691
  44   1.0000      -5.631112      -153.2303
  45   1.0000      -5.631012      -153.2276
  46   1.0000      -5.630884      -153.2241
  47   1.0000      -5.630815      -153.2223
  48   1.0000      -5.624930      -153.0621
  49   1.0000      -5.624823      -153.0592
  50   1.0000      -5.624692      -153.0557
  51   1.0000      -5.624625      -153.0538
  52   1.0000      -5.624223      -153.0429
  53   1.0000      -5.624116      -153.0400
  54   1.0000      -5.623982      -153.0363
  55   1.0000      -5.623936      -153.0351
  56   1.0000      -2.364921       -64.3528
  57   1.0000      -1.431651       -38.9572
  58   1.0000      -1.377467       -37.4828
  59   1.0000      -1.376823       -37.4652
  60   1.0000      -0.664824       -18.0908
  61   1.0000      -0.646012       -17.5789
  62   1.0000      -0.625460       -17.0196
  63   1.0000      -0.608780       -16.5657
  64   1.0000      -0.596671       -16.2363
  65   1.0000      -0.573514       -15.6061
  66   1.0000      -0.570648       -15.5281
  67   1.0000      -0.518852       -14.1187
  68   1.0000      -0.497244       -13.5307
  69   1.0000      -0.485191       -13.2027
  70   1.0000      -0.481598       -13.1050
  71   1.0000      -0.427339       -11.6285
  72   1.0000      -0.420917       -11.4537
  73   1.0000      -0.417181       -11.3521
  74   1.0000      -0.413982       -11.2650
  75   1.0000      -0.379779       -10.3343
  76   1.0000      -0.374609       -10.1936
  77   1.0000      -0.332919        -9.0592
  78   1.0000      -0.296786        -8.0760
  79   1.0000      -0.285697        -7.7742
  80   1.0000      -0.280070        -7.6211
  81   1.0000      -0.258591        -7.0366
  82   1.0000      -0.252991        -6.8842
  83   1.0000      -0.238987        -6.5032
  84   1.0000      -0.235593        -6.4108
  85   1.0000      -0.207397        -5.6436
  86   1.0000      -0.197747        -5.3810
  87   1.0000      -0.190583        -5.1860
  88   1.0000      -0.187658        -5.1064
  89   1.0000      -0.186209        -5.0670
  90   1.0000      -0.179711        -4.8902
  91   1.0000      -0.178431        -4.8554
  92   1.0000      -0.149728        -4.0743
  93   1.0000      -0.148844        -4.0503
  94   1.0000      -0.143679        -3.9097
  95   1.0000      -0.142597        -3.8803
  96   1.0000      -0.141920        -3.8618
  97   1.0000      -0.095956        -2.6111
  98   1.0000      -0.094876        -2.5817
  99   1.0000      -0.090666        -2.4671
 100   1.0000      -0.084511        -2.2997
 101   1.0000      -0.081648        -2.2217
 102   1.0000      -0.080146        -2.1809
 103   1.0000      -0.071341        -1.9413
 104   1.0000      -0.045211        -1.2303
 105   1.0000      -0.037318        -1.0155
 106   1.0000      -0.036754        -1.0001
 107   1.0000      -0.033770        -0.9189
 108   1.0000      -0.031439        -0.8555
 109   1.0000      -0.011600        -0.3156
 110   1.0000      -0.005127        -0.1395
 111   1.0000      -0.001674        -0.0455
 112   1.0000       0.007467         0.2032
 113   1.0000       0.012043         0.3277
 114   1.0000       0.034280         0.9328
 115   1.0000       0.059406         1.6165
 116   0.0000       0.185777         5.0552
 117   0.0000       0.189730         5.1628
 118   0.0000       0.196513         5.3474
 119   0.0000       0.199546         5.4299
 120   0.0000       0.203367         5.5339

MULLIKEN ATOMIC CHARGES AND SPIN POPULATIONS
--------------------------------------------
   0 V :    0.447430    1.199208
   1 S :   -0.253443   -0.024150
   2 S :   -0.254167   -0.024133
   3 S :   -0.253595   -0.024083
   4 S :   -0.254414   -0.024070
   5 O :   -0.506711   -0.138730
   6 C :   -0.116431    0.008847
   7 C :   -0.115239    0.008850
   8 C :   -0.114130    0.008910
   9 C :   -0.115074    0.008861
  10 S :   -0.044002   -0.000140
  11 S :   -0.043876   -0.000174
  12 S :   -0.039727   -0.000130
  13 S :   -0.039854   -0.000158
  14 C :   -0.343135    0.000274
  15 C :   -0.372053    0.000248
  16 C :   -0.342814    0.000259
  17 C :   -0.371681    0.000265
  18 C :   -0.103898    0.000174
  19 H :    0.144583   -0.000101
  20 H :    0.093488    0.000022
  21 H :    0.095739   -0.000004
  22 H :    0.076529    0.000008
  23 H :    0.093352    0.000023
  24 H :    0.144917   -0.000103
  25 C :    0.007031    0.000379
  26 H :    0.075986    0.000032
  27 H :    0.140012   -0.000104
  28 H :    0.078635   -0.000057
  29 H :    0.070277   -0.000148
  30 H :    0.140291   -0.000102
  31 H :    0.075974    0.000030
Sum of atomic charges         :   -2.0000000

LOEWDIN ATOMIC CHARGES AND SPIN POPULATIONS
-------------------------------------------
   0 V :   -0.242988    1.153207
   1 S :    0.088278   -0.016350
   2 S :    0.087825   -0.016351
   3 S :    0.088046   -0.016287
   4 S :    0.087569   -0.016332
   5 O :   -0.351138   -0.124177
   6 C :   -0.553217    0.009990
   7 C :   -0.552709    0.009952
   8 C :   -0.552636    0.009957
   9 C :   -0.553021    0.009978
  10 S :    0.336256   -0.001014
  11 S :    0.336130   -0.001033
  12 S :    0.339152   -0.001012
  13 S :    0.339112   -0.001025
  14 C :   -0.289008    0.000161
  15 C :   -0.256214    0.000154
  16 C :   -0.289102    0.000153
  17 C :   -0.256281    0.000164
  18 C :   -0.165601   -0.000030
  19 H :    0.066370   -0.000027
  20 H :    0.048302    0.000004
  21 H :    0.017178   -0.000001
  22 H :    0.053215    0.000011
  23 H :    0.048297    0.000006
  24 H :    0.066514   -0.000027
  25 C :    0.061710   -0.000027
  26 H :    0.051522    0.000010
  27 H :    0.069252   -0.000027
  28 H :    0.083441    0.000005
  29 H :   -0.327077   -0.000013
  30 H :    0.069318   -0.000027
  31 H :    0.051504    0.000008

  Mayer bond orders larger than 0.100000
B(  0-V ,  1-S ) :   0.7879 B(  0-V ,  2-S ) :   0.7910 B(  0-V ,  3-S ) :   0.7899
B(  0-V ,  4-S ) :   0.7885 B(  0-V ,  5-O ) :   2.1079 B(  1-S ,  8-C ) :   1.1389
B(  2-S ,  6-C ) :   1.1365 B(  3-S ,  9-C ) :   1.1380 B(  4-S ,  7-C ) :   1.1376
B(  6-C ,  7-C ) :   1.5162 B(  6-C , 10-S ) :   0.9555 B(  7-C , 11-S ) :   0.9555
B(  8-C ,  9-C ) :   1.5120 B(  8-C , 13-S ) :   0.9562 B(  9-C , 12-S ) :   0.9566
B( 10-S , 16-C ) :   1.0111 B( 11-S , 14-C ) :   1.0108 B( 12-S , 15-C ) :   1.0254
B( 13-S , 17-C ) :   1.0255 B( 14-C , 18-C ) :   0.8682 B( 14-C , 23-H ) :   0.9707
B( 14-C , 24-H ) :   0.9756 B( 15-C , 25-C ) :   0.8284 B( 15-C , 30-H ) :   0.9752
B( 15-C , 31-H ) :   0.9748 B( 16-C , 18-C ) :   0.8685 B( 16-C , 19-H ) :   0.9756
B( 16-C , 20-H ) :   0.9704 B( 17-C , 25-C ) :   0.8289 B( 17-C , 26-H ) :   0.9750
B( 17-C , 27-H ) :   0.9751 B( 18-C , 21-H ) :   0.9680 B( 18-C , 22-H ) :   0.9825
B( 25-C , 28-H ) :   1.1064 B( 25-C , 29-H ) :   0.8522

FINAL SINGLE POINT ENERGY     -4591.465193028013

DIPOLE MOMENT
-------------
                                X             Y             Z
Electronic contribution:     -3.40383      25.48920      -4.57064
Nuclear contribution   :      3.80992     -28.53156       5.11489
                        -----------------------------------------
Total Dipole Moment    :      0.40610      -3.04236       0.54426
                        -----------------------------------------
Magnitude (a.u.)       :      3.11723
Magnitude (Debye)      :      7.92336

Rotational constants in cm-1:     0.012781     0.002549     0.002431
Rotational constants in MHz :   383.162008    76.413584    72.882798

                             ****ORCA TERMINATED NORMALLY****
TOTAL RUN TIME: 0 days 0 hours 43 minutes 3 seconds 672 msec
