                         Program Version 5.0.4 -  RELEASE  -
|  1> ! nofrozencore ReducedPop printbasis
|  2> ! B3LYP TZVP
|  3>
|  4> %basis
|  5> newgto V "CP(PPP)" end
|  6> end
|  7>
|  8> %pal
|  9> nprocs 8
| 10> end
| 11>
| 12> % sym SymThresh 1e-2 end
| 13> * xyz -2 2
| 14> V 1.089980812816283 -0.19244555309645922 -0.13792511150531525
| 15> S 0.03754559403336959 -2.308742552706817 0.5096118846381947
| 16> S -0.012244670156113061 -0.5097315552783752 -2.3017032244482034
| 17> S 0.7176788537880388 0.3869335897181916 2.2125891530293824
| 18> S 0.6982706344436685 2.181670152753746 -0.6043101965291362
| 19> O 2.649606783304453 -0.473288868951663 -0.3328812399452459
| 20> C 0.01001084897110309 1.0987278084293075 -3.035751706794877
| 21> C 0.30491316709949 2.2209527059636103 -2.3274676994216863
| 22> C 0.09588195236975335 -2.290225852245448 2.2763184681092796
| 23> C 0.3795264773242899 -1.166435687966387 2.9866472468321725
| 24> S -0.4180349425400378 1.1366791635564242 -4.7879002408548805
| 25> S 0.2937191267274993 3.867949777497926 -3.063908541226742
| 26> S 0.40343888472681183 -1.1339400301183216 4.790423517359988
| 27> S -0.28584511905423243 -3.8690622989012846 3.062507568247559
| 28> C -1.493035019697329 4.1407269016570325 -3.448303471868616
| 29> C -1.3692792575878758 -1.4032794349681785 5.23059106855554
| 30> C -2.0503791201276504 2.002124095798738 -4.800744665089433
| 31> C -1.9072557193347464 -3.5404859001066997 3.881560945170068
| 32> C -1.96674729621927 3.515635771746099 -4.746628792346143
| 33> H -2.6192057816326653 1.6139293884297274 -3.9823213063192004
| 34> H -2.5097561979907717 1.6928824436930294 -5.683933169524852
| 35> H -3.470721180423578 4.067852444544608 -5.000074245380426
| 36> H -1.325796482703596 3.917063138827782 -5.645630969888257
| 37> H -1.6045906609222644 5.176589039412877 -3.479558497365078
| 38> H -2.0535886031095933 3.775969850277227 -2.6134547031916906
| 39> C -1.856257437322094 -2.854852167564626 5.2497176884144885
| 40> H -2.3727862361305823 -4.539774638500642 3.9935432000314743
| 41> H -2.5169094704409485 -2.9640584243835844 3.1734232571392633
| 42> H -1.2223372334760219 -3.426042787382722 5.902039978599774
| 43> H -2.7432892885318423 -2.870007228552635 5.627215331637407
| 44> H -1.9697947560680307 -0.7947561189142988 4.541796109737663
| 45> H -1.4761181353732131 -0.97105662070068 6.245266663834275
| 46> *
| 47>
| 48> % eprnmr
| 49> gtensor true
| 50> Nuclei = all H {aiso,adip,aorb,fgrad,rho}
| 51> Nuclei = all V {aiso,adip,aorb,fgrad,rho}
| 52> end
| 53>
| 54>                          ****END OF INPUT****

CARTESIAN COORDINATES (ANGSTROEM)
---------------------------------
  V      1.091136   -0.192612   -0.138143
  S      0.038700   -2.308909    0.509394
  S     -0.011090   -0.509898   -2.301921
  S      0.718834    0.386768    2.212371
  S      0.699425    2.181504   -0.604528
  O      2.650762   -0.473455   -0.333099
  C      0.011166    1.098562   -3.035970
  C      0.306068    2.220787   -2.327686
  C      0.097037   -2.290392    2.276100
  C      0.380681   -1.166602    2.986429
  S     -0.416880    1.136513   -4.788118
  S      0.294874    3.867784   -3.064127
  S      0.404594   -1.134106    4.790205
  S     -0.284690   -3.869228    3.062289
  C     -1.491880    4.140561   -3.448522
  C     -1.368124   -1.403445    5.230373
  C     -2.049224    2.001958   -4.800963
  C     -1.906101   -3.540652    3.881343
  C     -1.965593    3.515470   -4.746847
  H     -2.618051    1.613763   -3.982540
  H     -2.508601    1.692716   -5.684151
  H     -3.469566    4.067686   -5.000292
  H     -1.324642    3.916897   -5.645849
  H     -1.603436    5.176423   -3.479777
  H     -2.052434    3.775804   -2.613673
  C     -1.855103   -2.855018    5.249499
  H     -2.371631   -4.539941    3.993325
  H     -2.515755   -2.964224    3.173205
  H     -1.221182   -3.426209    5.901822
  H     -2.742135   -2.870173    5.626997
  H     -1.968640   -0.794922    4.541578
  H     -1.474963   -0.971223    6.245048

 Total Charge           Charge          ....   -2
 Multiplicity           Mult            ....    2
 Number of Electrons    NEL             ....  233
 Basis Dimension        Dim             ....  517

ORBITAL ENERGIES
----------------
                 SPIN UP ORBITALS
  NO   OCC          E(Eh)            E(eV)
   0   1.0000    -196.642976     -5350.9274
   1   1.0000     -88.683976     -2413.2137
   2   1.0000     -88.683945     -2413.2128
   3   1.0000     -88.677495     -2413.0373
   4   1.0000     -88.677440     -2413.0358
   5   1.0000     -88.615970     -2411.3631
   6   1.0000     -88.615896     -2411.3611
   7   1.0000     -88.613969     -2411.3087
   8   1.0000     -88.613933     -2411.3077
   9   1.0000     -22.018763      -599.1610
  10   1.0000     -18.859970      -513.2059
  11   1.0000     -18.525586      -504.1068
  12   1.0000     -18.519814      -503.9498
  13   1.0000     -18.519780      -503.9488
  14   1.0000     -10.053612      -273.5727
  15   1.0000     -10.017780      -272.5977
  16   1.0000     -10.017769      -272.5974
  17   1.0000     -10.014190      -272.5000
  18   1.0000     -10.014172      -272.4995
  19   1.0000      -9.996758      -272.0256
  20   1.0000      -9.996037      -272.0060
  21   1.0000      -9.993383      -271.9338
  22   1.0000      -9.992670      -271.9144
  23   1.0000      -9.988294      -271.7953
  24   1.0000      -7.737564      -210.5498
  25   1.0000      -7.737525      -210.5487
  26   1.0000      -7.731119      -210.3744
  27   1.0000      -7.731089      -210.3736
  28   1.0000      -7.670366      -208.7213
  29   1.0000      -7.670327      -208.7202
  30   1.0000      -7.668400      -208.6678
  31   1.0000      -7.668344      -208.6663
  32   1.0000      -5.702813      -155.1814
  33   1.0000      -5.702772      -155.1803
  34   1.0000      -5.698850      -155.0736
  35   1.0000      -5.698817      -155.0727
  36   1.0000      -5.696372      -155.0062
  37   1.0000      -5.696345      -155.0054
  38   1.0000      -5.692485      -154.9004
  39   1.0000      -5.692450      -154.8994
  40   1.0000      -5.692358      -154.8969
  41   1.0000      -5.692316      -154.8958
  42   1.0000      -5.685856      -154.7200
  43   1.0000      -5.685820      -154.7190
  44   1.0000      -5.635257      -153.3431
  45   1.0000      -5.635219      -153.3421
  46   1.0000      -5.633229      -153.2879
  47   1.0000      -5.633182      -153.2867
  48   1.0000      -5.628791      -153.1672
  49   1.0000      -5.628720      -153.1653
  50   1.0000      -5.628329      -153.1546
  51   1.0000      -5.628289      -153.1535
  52   1.0000      -5.626850      -153.1144
  53   1.0000      -5.626803      -153.1131
  54   1.0000      -5.626376      -153.1015
  55   1.0000      -5.626331      -153.1002
  56   1.0000      -2.412443       -65.6459
  57   1.0000      -1.453786       -39.5595
  58   1.0000      -1.442229       -39.2451
  59   1.0000      -1.441159       -39.2159
  60   1.0000      -0.649222       -17.6662
  61   1.0000      -0.646991       -17.6055
  62   1.0000      -0.620937       -16.8966
  63   1.0000      -0.597924       -16.2703
  64   1.0000      -0.595109       -16.1937
  65   1.0000      -0.586168       -15.9504
  66   1.0000      -0.575764       -15.6673
  67   1.0000      -0.497642       -13.5415
  68   1.0000      -0.495491       -13.4830
  69   1.0000      -0.487389       -13.2625
  70   1.0000      -0.486237       -13.2312
  71   1.0000      -0.429068       -11.6755
  72   1.0000      -0.422069       -11.4851
  73   1.0000      -0.416054       -11.3214
  74   1.0000      -0.407700       -11.0941
  75   1.0000      -0.379121       -10.3164
  76   1.0000      -0.375953       -10.2302
  77   1.0000      -0.304051        -8.2737
  78   1.0000      -0.296242        -8.0612
  79   1.0000      -0.286898        -7.8069
  80   1.0000      -0.266590        -7.2543
  81   1.0000      -0.258667        -7.0387
  82   1.0000      -0.251677        -6.8485
  83   1.0000      -0.248896        -6.7728
  84   1.0000      -0.240670        -6.5490
  85   1.0000      -0.208892        -5.6842
  86   1.0000      -0.199361        -5.4249
  87   1.0000      -0.191042        -5.1985
  88   1.0000      -0.190075        -5.1722
  89   1.0000      -0.187546        -5.1034
  90   1.0000      -0.184407        -5.0180
  91   1.0000      -0.166796        -4.5387
  92   1.0000      -0.153661        -4.1813
  93   1.0000      -0.153152        -4.1675
  94   1.0000      -0.146255        -3.9798
  95   1.0000      -0.144440        -3.9304
  96   1.0000      -0.137936        -3.7534
  97   1.0000      -0.100238        -2.7276
  98   1.0000      -0.099621        -2.7108
  99   1.0000      -0.090976        -2.4756
 100   1.0000      -0.084730        -2.3056
 101   1.0000      -0.084089        -2.2882
 102   1.0000      -0.082906        -2.2560
 103   1.0000      -0.071981        -1.9587
 104   1.0000      -0.053363        -1.4521
 105   1.0000      -0.042745        -1.1631
 106   1.0000      -0.041892        -1.1399
 107   1.0000      -0.038273        -1.0415
 108   1.0000      -0.035020        -0.9529
 109   1.0000      -0.016265        -0.4426
 110   1.0000      -0.007829        -0.2130
 111   1.0000      -0.006177        -0.1681
 112   1.0000       0.003363         0.0915
 113   1.0000       0.007740         0.2106
 114   1.0000       0.013395         0.3645
 115   1.0000       0.030691         0.8351
 116   1.0000       0.056956         1.5499
 117   0.0000       0.144678         3.9369
 118   0.0000       0.185872         5.0578
 119   0.0000       0.193563         5.2671
 120   0.0000       0.197779         5.3819
 121   0.0000       0.206920         5.6306

                 SPIN DOWN ORBITALS
  NO   OCC          E(Eh)            E(eV)
   0   1.0000    -196.643117     -5350.9313
   1   1.0000     -88.683990     -2413.2141
   2   1.0000     -88.683959     -2413.2132
   3   1.0000     -88.677508     -2413.0377
   4   1.0000     -88.677454     -2413.0362
   5   1.0000     -88.616127     -2411.3674
   6   1.0000     -88.616052     -2411.3654
   7   1.0000     -88.614130     -2411.3131
   8   1.0000     -88.614095     -2411.3121
   9   1.0000     -22.004097      -598.7619
  10   1.0000     -18.863551      -513.3033
  11   1.0000     -18.520456      -503.9672
  12   1.0000     -18.504333      -503.5285
  13   1.0000     -18.503645      -503.5098
  14   1.0000     -10.053612      -273.5727
  15   1.0000     -10.017777      -272.5976
  16   1.0000     -10.017766      -272.5973
  17   1.0000     -10.014186      -272.4999
  18   1.0000     -10.014169      -272.4994
  19   1.0000      -9.996505      -272.0187
  20   1.0000      -9.995786      -271.9992
  21   1.0000      -9.993128      -271.9268
  22   1.0000      -9.992416      -271.9075
  23   1.0000      -9.988294      -271.7953
  24   1.0000      -7.737579      -210.5502
  25   1.0000      -7.737539      -210.5491
  26   1.0000      -7.731132      -210.3748
  27   1.0000      -7.731102      -210.3740
  28   1.0000      -7.670511      -208.7252
  29   1.0000      -7.670472      -208.7242
  30   1.0000      -7.668550      -208.6718
  31   1.0000      -7.668494      -208.6703
  32   1.0000      -5.702830      -155.1819
  33   1.0000      -5.702788      -155.1808
  34   1.0000      -5.698871      -155.0742
  35   1.0000      -5.698838      -155.0733
  36   1.0000      -5.696388      -155.0066
  37   1.0000      -5.696362      -155.0059
  38   1.0000      -5.692505      -154.9009
  39   1.0000      -5.692470      -154.9000
  40   1.0000      -5.692376      -154.8974
  41   1.0000      -5.692334      -154.8963
  42   1.0000      -5.685873      -154.7205
  43   1.0000      -5.685837      -154.7195
  44   1.0000      -5.635426      -153.3477
  45   1.0000      -5.635387      -153.3467
  46   1.0000      -5.633402      -153.2926
  47   1.0000      -5.633355      -153.2914
  48   1.0000      -5.629172      -153.1775
  49   1.0000      -5.629102      -153.1756
  50   1.0000      -5.628463      -153.1583
  51   1.0000      -5.628422      -153.1571
  52   1.0000      -5.627247      -153.1252
  53   1.0000      -5.627200      -153.1239
  54   1.0000      -5.626513      -153.1052
  55   1.0000      -5.626467      -153.1040
  56   1.0000      -2.368267       -64.4438
  57   1.0000      -1.434957       -39.0472
  58   1.0000      -1.380844       -37.5747
  59   1.0000      -1.380184       -37.5567
  60   1.0000      -0.649169       -17.6648
  61   1.0000      -0.646948       -17.6044
  62   1.0000      -0.628611       -17.1054
  63   1.0000      -0.597727       -16.2650
  64   1.0000      -0.594909       -16.1883
  65   1.0000      -0.586166       -15.9504
  66   1.0000      -0.575758       -15.6672
  67   1.0000      -0.497661       -13.5421
  68   1.0000      -0.495481       -13.4827
  69   1.0000      -0.487411       -13.2631
  70   1.0000      -0.486286       -13.2325
  71   1.0000      -0.429336       -11.6828
  72   1.0000      -0.422361       -11.4930
  73   1.0000      -0.416092       -11.3224
  74   1.0000      -0.407762       -11.0958
  75   1.0000      -0.379079       -10.3153
  76   1.0000      -0.375979       -10.2309
  77   1.0000      -0.304040        -8.2733
  78   1.0000      -0.296221        -8.0606
  79   1.0000      -0.286889        -7.8067
  80   1.0000      -0.266471        -7.2510
  81   1.0000      -0.258566        -7.0360
  82   1.0000      -0.251605        -6.8465
  83   1.0000      -0.248783        -6.7697
  84   1.0000      -0.240592        -6.5468
  85   1.0000      -0.208860        -5.6834
  86   1.0000      -0.199052        -5.4165
  87   1.0000      -0.190902        -5.1947
  88   1.0000      -0.190038        -5.1712
  89   1.0000      -0.187508        -5.1023
  90   1.0000      -0.182289        -4.9603
  91   1.0000      -0.166663        -4.5351
  92   1.0000      -0.153368        -4.1734
  93   1.0000      -0.152475        -4.1491
  94   1.0000      -0.146047        -3.9741
  95   1.0000      -0.144243        -3.9250
  96   1.0000      -0.137722        -3.7476
  97   1.0000      -0.099750        -2.7143
  98   1.0000      -0.098110        -2.6697
  99   1.0000      -0.091203        -2.4817
 100   1.0000      -0.084894        -2.3101
 101   1.0000      -0.084156        -2.2900
 102   1.0000      -0.084102        -2.2885
 103   1.0000      -0.073167        -1.9910
 104   1.0000      -0.049551        -1.3484
 105   1.0000      -0.042381        -1.1532
 106   1.0000      -0.041179        -1.1205
 107   1.0000      -0.037586        -1.0228
 108   1.0000      -0.034891        -0.9494
 109   1.0000      -0.015357        -0.4179
 110   1.0000      -0.008810        -0.2397
 111   1.0000      -0.005440        -0.1480
 112   1.0000       0.004109         0.1118
 113   1.0000       0.008678         0.2361
 114   1.0000       0.030943         0.8420
 115   1.0000       0.056167         1.5284
 116   0.0000       0.144619         3.9353
 117   0.0000       0.182571         4.9680
 118   0.0000       0.187153         5.0927
 119   0.0000       0.194234         5.2854
 120   0.0000       0.197974         5.3871

MULLIKEN ATOMIC CHARGES AND SPIN POPULATIONS
--------------------------------------------
   0 V :    0.447514    1.199041
   1 S :   -0.253217   -0.024665
   2 S :   -0.249756   -0.023389
   3 S :   -0.253525   -0.024625
   4 S :   -0.249988   -0.023283
   5 O :   -0.505018   -0.138985
   6 C :   -0.119053    0.008791
   7 C :   -0.117199    0.008761
   8 C :   -0.115268    0.009002
   9 C :   -0.115311    0.008972
  10 S :   -0.038534   -0.000317
  11 S :   -0.038500   -0.000351
  12 S :   -0.043292   -0.000172
  13 S :   -0.043424   -0.000205
  14 C :   -0.333118    0.000334
  15 C :   -0.342313    0.000283
  16 C :   -0.331991    0.000316
  17 C :   -0.341045    0.000303
  18 C :   -0.037548   -0.000056
  19 H :    0.156045   -0.000099
  20 H :    0.130756    0.000015
  21 H :   -0.114190    0.000352
  22 H :    0.075217    0.000039
  23 H :    0.130883    0.000015
  24 H :    0.156360   -0.000102
  25 C :   -0.100182    0.000171
  26 H :    0.095757    0.000030
  27 H :    0.145210   -0.000108
  28 H :    0.077382    0.000004
  29 H :    0.085749    0.000003
  30 H :    0.145720   -0.000104
  31 H :    0.095879    0.000028
Sum of atomic charges         :   -2.0000000

LOEWDIN ATOMIC CHARGES AND SPIN POPULATIONS
-------------------------------------------
   0 V :   -0.242047    1.153110
   1 S :    0.088687   -0.016734
   2 S :    0.090413   -0.015783
   3 S :    0.088464   -0.016681
   4 S :    0.090199   -0.015745
   5 O :   -0.349775   -0.124426
   6 C :   -0.552973    0.009942
   7 C :   -0.552426    0.009891
   8 C :   -0.552165    0.009991
   9 C :   -0.552461    0.010024
  10 S :    0.347802   -0.001105
  11 S :    0.347605   -0.001125
  12 S :    0.336850   -0.001031
  13 S :    0.336814   -0.001047
  14 C :   -0.296050    0.000167
  15 C :   -0.289707    0.000165
  16 C :   -0.296119    0.000158
  17 C :   -0.289737    0.000175
  18 C :   -0.154069   -0.000106
  19 H :    0.066368   -0.000025
  20 H :    0.044936    0.000002
  21 H :   -0.023433    0.000244
  22 H :    0.063854    0.000018
  23 H :    0.044934    0.000003
  24 H :    0.066504   -0.000025
  25 C :   -0.170797   -0.000033
  26 H :    0.048258    0.000010
  27 H :    0.066317   -0.000027
  28 H :    0.053135    0.000010
  29 H :    0.025948    0.000003
  30 H :    0.066397   -0.000027
  31 H :    0.048274    0.000009

  Mayer bond orders larger than 0.100000
B(  0-V ,  1-S ) :   0.7924 B(  0-V ,  2-S ) :   0.7853 B(  0-V ,  3-S ) :   0.7943
B(  0-V ,  4-S ) :   0.7828 B(  0-V ,  5-O ) :   2.1095 B(  1-S ,  8-C ) :   1.1367
B(  2-S ,  6-C ) :   1.1416 B(  3-S ,  9-C ) :   1.1357 B(  4-S ,  7-C ) :   1.1426
B(  6-C ,  7-C ) :   1.5159 B(  6-C , 10-S ) :   0.9478 B(  7-C , 11-S ) :   0.9473
B(  8-C ,  9-C ) :   1.5175 B(  8-C , 13-S ) :   0.9561 B(  9-C , 12-S ) :   0.9564
B( 10-S , 16-C ) :   0.9704 B( 11-S , 14-C ) :   0.9703 B( 12-S , 15-C ) :   1.0096
B( 13-S , 17-C ) :   1.0099 B( 14-C , 18-C ) :   0.9021 B( 14-C , 23-H ) :   0.9674
B( 14-C , 24-H ) :   0.9744 B( 15-C , 25-C ) :   0.8708 B( 15-C , 30-H ) :   0.9754
B( 15-C , 31-H ) :   0.9704 B( 16-C , 18-C ) :   0.9022 B( 16-C , 19-H ) :   0.9742
B( 16-C , 20-H ) :   0.9673 B( 17-C , 25-C ) :   0.8707 B( 17-C , 26-H ) :   0.9706
B( 17-C , 27-H ) :   0.9753 B( 18-C , 21-H ) :   0.8476 B( 18-C , 22-H ) :   0.9548
B( 25-C , 28-H ) :   0.9809 B( 25-C , 29-H ) :   0.9659

FINAL SINGLE POINT ENERGY     -4592.643653116814

DIPOLE MOMENT
-------------
                                X             Y             Z
Electronic contribution:     26.78025      -5.09810      -2.78359
Nuclear contribution   :    -29.31910       5.27825       3.52467
                        -----------------------------------------
Total Dipole Moment    :     -2.53885       0.18015       0.74107
                        -----------------------------------------
Magnitude (a.u.)       :      2.65093
Magnitude (Debye)      :      6.73813

Rotational constants in cm-1:     0.012763     0.002548     0.002431
Rotational constants in MHz :   382.626651    76.387067    72.883960

                             ****ORCA TERMINATED NORMALLY****
TOTAL RUN TIME: 0 days 0 hours 27 minutes 23 seconds 923 msec
