                         Program Version 5.0.4 -  RELEASE  -
|  1> ! nofrozencore ReducedPop printbasis
|  2> ! B3LYP TZVP
|  3>
|  4> %basis
|  5> newgto V "CP(PPP)" end
|  6> end
|  7>
|  8> %pal
|  9> nprocs 4
| 10> end
| 11>
| 12> % sym SymThresh 1e-2 end
| 13> * xyz -2 2
| 14> V 0.9114464013912326 -0.6035905348898546 -0.22159063554977101
| 15> S -1.0004869152525815 -1.818594281744466 -1.1343258670773149
| 16> S 0.5611568675728227 0.9798400279237378 -2.068835958475264
| 17> S -0.004639717110720029 -1.3474519541821257 1.9345003584090912
| 18> S 1.6509957823251957 1.392158734914264 0.9763462567456951
| 19> O 2.2125638815490407 -1.4722083721756134 -0.5409710836141529
| 20> C 1.7003219981701458 2.3076263127140844 -1.6087321804959578
| 21> C 1.671117066989975 2.713843720819931 -0.2062906195032975
| 22> C -1.7601019750593105 -2.6559768254999008 0.23060144760339585
| 23> C -0.9493204889383988 -2.801707802262662 1.4271752828602664
| 24> S 1.6938001506344669 3.654928237609113 -2.8320228130211453
| 25> S 2.791608126022948 4.088832395416351 0.25770743835874393
| 26> S -1.7357337641550978 -3.627942467687026 2.8433279483504785
| 27> S -2.7546960533221334 -4.11213896238107 -0.26650255707589826
| 28> C 1.4865999547655973 5.367159627617849 0.11212127267806703
| 29> C -3.5259227503777013 -3.149571389063469 3.0109370499256136
| 30> C 0.6135043731917161 5.0766033542172995 -2.304434747575705
| 31> C -4.278112421486325 -3.5235682383052778 0.5648366352315033
| 32> C 1.246871741960873 5.995455795401127 -1.2629920485341524
| 33> H -0.38127032954569096 4.716525142218173 -2.008095848245534
| 34> H 0.5165855146737197 5.625636697536675 -3.2556091745128035
| 35> H 0.5833872244398488 6.863803015602613 -1.1140738268175199
| 36> H 2.1904373010238216 6.379824909639369 -1.6661024944604939
| 37> H 1.6902696531519694 6.1625726379346455 0.8463413799789881
| 38> H 0.5764819962591109 4.848205008789088 0.4374822355827776
| 39> C -4.46459870813223 -3.86694853942741 2.0444835214875776
| 40> H -5.147487760781333 -3.885050007415515 -0.005848101322421759
| 41> H -4.239434511230381 -2.4341573280590714 0.4447849526536875
| 42> H -4.356262397170802 -4.9473381822812765 2.1914792027382983
| 43> H -5.503051599106615 -3.6088478559607977 2.311262819025842
| 44> H -3.635152310147545 -2.0572694598494596 2.979578079218043
| 45> H -3.7383278928294046 -3.4908876949258985 4.0368743677391805
| 46> *
| 47>
| 48> % eprnmr
| 49> gtensor true
| 50> Nuclei = all H {aiso,adip,aorb,fgrad,rho}
| 51> Nuclei = all V {aiso,adip,aorb,fgrad,rho}
| 52> end
| 53>
| 54>                          ****END OF INPUT****

CARTESIAN COORDINATES (ANGSTROEM)
---------------------------------
  V      0.912451   -0.604165   -0.221855
  S     -0.999482   -1.819168   -1.134590
  S      0.562162    0.979266   -2.069100
  S     -0.003635   -1.348026    1.934236
  S      1.652000    1.391585    0.976082
  O      2.213569   -1.472782   -0.541235
  C      1.701327    2.307052   -1.608996
  C      1.672122    2.713270   -0.206555
  C     -1.759097   -2.656551    0.230338
  C     -0.948316   -2.802282    1.426911
  S      1.694805    3.654354   -2.832287
  S      2.792613    4.088258    0.257444
  S     -1.734729   -3.628516    2.843064
  S     -2.753691   -4.112713   -0.266766
  C      1.487605    5.366586    0.111857
  C     -3.524918   -3.150145    3.010673
  C      0.614509    5.076029   -2.304699
  C     -4.277108   -3.524142    0.564573
  C      1.247876    5.994882   -1.263256
  H     -0.380266    4.715951   -2.008360
  H      0.517590    5.625063   -3.255873
  H      0.584392    6.863229   -1.114338
  H      2.191442    6.379251   -1.666366
  H      1.691274    6.161999    0.846077
  H      0.577487    4.847631    0.437218
  C     -4.463594   -3.867523    2.044220
  H     -5.146483   -3.885624   -0.006112
  H     -4.238430   -2.434731    0.444521
  H     -4.355258   -4.947912    2.191215
  H     -5.502047   -3.609422    2.310999
  H     -3.634148   -2.057843    2.979314
  H     -3.737323   -3.491462    4.036610

 Total Charge           Charge          ....   -2
 Multiplicity           Mult            ....    2
 Number of Electrons    NEL             ....  233
 Basis Dimension        Dim             ....  517

ORBITAL ENERGIES
----------------
                 SPIN UP ORBITALS
  NO   OCC          E(Eh)            E(eV)
   0   1.0000    -196.643492     -5350.9415
   1   1.0000     -88.677651     -2413.0416
   2   1.0000     -88.677487     -2413.0371
   3   1.0000     -88.671518     -2412.8747
   4   1.0000     -88.671083     -2412.8628
   5   1.0000     -88.619468     -2411.4583
   6   1.0000     -88.619289     -2411.4534
   7   1.0000     -88.617962     -2411.4173
   8   1.0000     -88.617675     -2411.4095
   9   1.0000     -22.019180      -599.1723
  10   1.0000     -18.862036      -513.2621
  11   1.0000     -18.526158      -504.1224
  12   1.0000     -18.520195      -503.9601
  13   1.0000     -18.520073      -503.9568
  14   1.0000     -10.018126      -272.6071
  15   1.0000     -10.018033      -272.6045
  16   1.0000     -10.012074      -272.4424
  17   1.0000     -10.011817      -272.4354
  18   1.0000     -10.005908      -272.2746
  19   1.0000     -10.005190      -272.2551
  20   1.0000     -10.004786      -272.2441
  21   1.0000     -10.003941      -272.2211
  22   1.0000     -10.003556      -272.2106
  23   1.0000     -10.003399      -272.2063
  24   1.0000      -7.731157      -210.3755
  25   1.0000      -7.730976      -210.3706
  26   1.0000      -7.725021      -210.2085
  27   1.0000      -7.724582      -210.1966
  28   1.0000      -7.673887      -208.8171
  29   1.0000      -7.673714      -208.8124
  30   1.0000      -7.671594      -208.7547
  31   1.0000      -7.671345      -208.7479
  32   1.0000      -5.696011      -154.9963
  33   1.0000      -5.695816      -154.9910
  34   1.0000      -5.692996      -154.9143
  35   1.0000      -5.692830      -154.9098
  36   1.0000      -5.690522      -154.8470
  37   1.0000      -5.690094      -154.8353
  38   1.0000      -5.685978      -154.7233
  39   1.0000      -5.685837      -154.7195
  40   1.0000      -5.685657      -154.7146
  41   1.0000      -5.685524      -154.7110
  42   1.0000      -5.679890      -154.5577
  43   1.0000      -5.679448      -154.5456
  44   1.0000      -5.638602      -153.4342
  45   1.0000      -5.638427      -153.4294
  46   1.0000      -5.636533      -153.3779
  47   1.0000      -5.636289      -153.3712
  48   1.0000      -5.632387      -153.2651
  49   1.0000      -5.632174      -153.2592
  50   1.0000      -5.631947      -153.2531
  51   1.0000      -5.631803      -153.2492
  52   1.0000      -5.630158      -153.2044
  53   1.0000      -5.629906      -153.1975
  54   1.0000      -5.629482      -153.1860
  55   1.0000      -5.629227      -153.1790
  56   1.0000      -2.413100       -65.6638
  57   1.0000      -1.454793       -39.5869
  58   1.0000      -1.442945       -39.2645
  59   1.0000      -1.441555       -39.2267
  60   1.0000      -0.640871       -17.4390
  61   1.0000      -0.640443       -17.4273
  62   1.0000      -0.622819       -16.9478
  63   1.0000      -0.587187       -15.9782
  64   1.0000      -0.586365       -15.9558
  65   1.0000      -0.572811       -15.5870
  66   1.0000      -0.572271       -15.5723
  67   1.0000      -0.489305       -13.3147
  68   1.0000      -0.488123       -13.2825
  69   1.0000      -0.484195       -13.1756
  70   1.0000      -0.483784       -13.1644
  71   1.0000      -0.421793       -11.4776
  72   1.0000      -0.419008       -11.4018
  73   1.0000      -0.406387       -11.0583
  74   1.0000      -0.401810       -10.9338
  75   1.0000      -0.365778        -9.9533
  76   1.0000      -0.361096        -9.8259
  77   1.0000      -0.287755        -7.8302
  78   1.0000      -0.287023        -7.8103
  79   1.0000      -0.276361        -7.5202
  80   1.0000      -0.276001        -7.5104
  81   1.0000      -0.260815        -7.0971
  82   1.0000      -0.255936        -6.9644
  83   1.0000      -0.240759        -6.5514
  84   1.0000      -0.238205        -6.4819
  85   1.0000      -0.192628        -5.2417
  86   1.0000      -0.192060        -5.2262
  87   1.0000      -0.188972        -5.1422
  88   1.0000      -0.188605        -5.1322
  89   1.0000      -0.179774        -4.8919
  90   1.0000      -0.178120        -4.8469
  91   1.0000      -0.174861        -4.7582
  92   1.0000      -0.150818        -4.1040
  93   1.0000      -0.147240        -4.0066
  94   1.0000      -0.146465        -3.9855
  95   1.0000      -0.132496        -3.6054
  96   1.0000      -0.130120        -3.5407
  97   1.0000      -0.103223        -2.8088
  98   1.0000      -0.101481        -2.7614
  99   1.0000      -0.092296        -2.5115
 100   1.0000      -0.086320        -2.3489
 101   1.0000      -0.083499        -2.2721
 102   1.0000      -0.070552        -1.9198
 103   1.0000      -0.069346        -1.8870
 104   1.0000      -0.051707        -1.4070
 105   1.0000      -0.040607        -1.1050
 106   1.0000      -0.037228        -1.0130
 107   1.0000      -0.034450        -0.9374
 108   1.0000      -0.028483        -0.7751
 109   1.0000      -0.015559        -0.4234
 110   1.0000      -0.005538        -0.1507
 111   1.0000      -0.003288        -0.0895
 112   1.0000      -0.000817        -0.0222
 113   1.0000       0.009444         0.2570
 114   1.0000       0.019274         0.5245
 115   1.0000       0.029965         0.8154
 116   1.0000       0.053867         1.4658
 117   0.0000       0.154121         4.1938
 118   0.0000       0.160279         4.3614
 119   0.0000       0.197454         5.3730
 120   0.0000       0.197940         5.3862
 121   0.0000       0.207192         5.6380

                 SPIN DOWN ORBITALS
  NO   OCC          E(Eh)            E(eV)
   0   1.0000    -196.643634     -5350.9453
   1   1.0000     -88.677664     -2413.0419
   2   1.0000     -88.677501     -2413.0375
   3   1.0000     -88.671533     -2412.8751
   4   1.0000     -88.671097     -2412.8632
   5   1.0000     -88.619612     -2411.4622
   6   1.0000     -88.619437     -2411.4575
   7   1.0000     -88.618119     -2411.4216
   8   1.0000     -88.617829     -2411.4137
   9   1.0000     -22.004498      -598.7728
  10   1.0000     -18.865611      -513.3594
  11   1.0000     -18.521036      -503.9830
  12   1.0000     -18.504638      -503.5368
  13   1.0000     -18.503962      -503.5184
  14   1.0000     -10.018126      -272.6071
  15   1.0000     -10.018032      -272.6045
  16   1.0000     -10.012067      -272.4422
  17   1.0000     -10.011810      -272.4352
  18   1.0000     -10.005643      -272.2674
  19   1.0000     -10.004931      -272.2480
  20   1.0000     -10.004565      -272.2381
  21   1.0000     -10.003715      -272.2149
  22   1.0000     -10.003555      -272.2106
  23   1.0000     -10.003398      -272.2063
  24   1.0000      -7.731171      -210.3759
  25   1.0000      -7.730990      -210.3709
  26   1.0000      -7.725037      -210.2089
  27   1.0000      -7.724597      -210.1970
  28   1.0000      -7.674020      -208.8207
  29   1.0000      -7.673851      -208.8161
  30   1.0000      -7.671743      -208.7587
  31   1.0000      -7.671491      -208.7519
  32   1.0000      -5.696032      -154.9969
  33   1.0000      -5.695836      -154.9916
  34   1.0000      -5.693018      -154.9149
  35   1.0000      -5.692852      -154.9104
  36   1.0000      -5.690538      -154.8474
  37   1.0000      -5.690109      -154.8357
  38   1.0000      -5.686000      -154.7239
  39   1.0000      -5.685848      -154.7198
  40   1.0000      -5.685668      -154.7149
  41   1.0000      -5.685546      -154.7116
  42   1.0000      -5.679911      -154.5582
  43   1.0000      -5.679469      -154.5462
  44   1.0000      -5.638763      -153.4386
  45   1.0000      -5.638591      -153.4339
  46   1.0000      -5.636694      -153.3823
  47   1.0000      -5.636448      -153.3756
  48   1.0000      -5.632681      -153.2730
  49   1.0000      -5.632481      -153.2676
  50   1.0000      -5.632124      -153.2579
  51   1.0000      -5.631982      -153.2540
  52   1.0000      -5.630576      -153.2158
  53   1.0000      -5.630323      -153.2089
  54   1.0000      -5.629581      -153.1887
  55   1.0000      -5.629319      -153.1816
  56   1.0000      -2.368935       -64.4620
  57   1.0000      -1.436015       -39.0760
  58   1.0000      -1.381698       -37.5979
  59   1.0000      -1.380434       -37.5635
  60   1.0000      -0.640830       -17.4379
  61   1.0000      -0.640402       -17.4262
  62   1.0000      -0.630478       -17.1562
  63   1.0000      -0.586983       -15.9726
  64   1.0000      -0.586151       -15.9500
  65   1.0000      -0.572798       -15.5866
  66   1.0000      -0.572258       -15.5719
  67   1.0000      -0.489332       -13.3154
  68   1.0000      -0.488132       -13.2827
  69   1.0000      -0.484217       -13.1762
  70   1.0000      -0.483802       -13.1649
  71   1.0000      -0.422018       -11.4837
  72   1.0000      -0.419296       -11.4096
  73   1.0000      -0.406380       -11.0582
  74   1.0000      -0.401881       -10.9357
  75   1.0000      -0.365698        -9.9511
  76   1.0000      -0.361114        -9.8264
  77   1.0000      -0.287724        -7.8294
  78   1.0000      -0.287013        -7.8100
  79   1.0000      -0.276332        -7.5194
  80   1.0000      -0.275980        -7.5098
  81   1.0000      -0.260593        -7.0911
  82   1.0000      -0.255858        -6.9623
  83   1.0000      -0.240661        -6.5487
  84   1.0000      -0.238122        -6.4796
  85   1.0000      -0.192491        -5.2379
  86   1.0000      -0.192027        -5.2253
  87   1.0000      -0.188855        -5.1390
  88   1.0000      -0.188506        -5.1295
  89   1.0000      -0.179350        -4.8804
  90   1.0000      -0.178002        -4.8437
  91   1.0000      -0.172953        -4.7063
  92   1.0000      -0.150582        -4.0975
  93   1.0000      -0.147031        -4.0009
  94   1.0000      -0.145859        -3.9690
  95   1.0000      -0.132285        -3.5997
  96   1.0000      -0.129629        -3.5274
  97   1.0000      -0.101723        -2.7680
  98   1.0000      -0.101366        -2.7583
  99   1.0000      -0.092395        -2.5142
 100   1.0000      -0.087031        -2.3682
 101   1.0000      -0.085073        -2.3149
 102   1.0000      -0.070334        -1.9139
 103   1.0000      -0.069913        -1.9024
 104   1.0000      -0.048912        -1.3310
 105   1.0000      -0.041093        -1.1182
 106   1.0000      -0.034688        -0.9439
 107   1.0000      -0.033582        -0.9138
 108   1.0000      -0.028377        -0.7722
 109   1.0000      -0.014763        -0.4017
 110   1.0000      -0.004058        -0.1104
 111   1.0000      -0.002633        -0.0716
 112   1.0000       0.003283         0.0893
 113   1.0000       0.010234         0.2785
 114   1.0000       0.030237         0.8228
 115   1.0000       0.053237         1.4487
 116   0.0000       0.154311         4.1990
 117   0.0000       0.160039         4.3549
 118   0.0000       0.184773         5.0279
 119   0.0000       0.197948         5.3864
 120   0.0000       0.198110         5.3908

MULLIKEN ATOMIC CHARGES AND SPIN POPULATIONS
--------------------------------------------
   0 V :    0.441265    1.196114
   1 S :   -0.232038   -0.022506
   2 S :   -0.257570   -0.025633
   3 S :   -0.258344   -0.025215
   4 S :   -0.232644   -0.021774
   5 O :   -0.503354   -0.138725
   6 C :   -0.055764    0.008633
   7 C :   -0.188714    0.010425
   8 C :   -0.190043    0.010163
   9 C :   -0.053995    0.008781
  10 S :   -0.072002   -0.000072
  11 S :   -0.040785   -0.000668
  12 S :   -0.069918   -0.000106
  13 S :   -0.040766   -0.000674
  14 C :   -0.324236    0.000565
  15 C :   -0.298067    0.000162
  16 C :   -0.295609    0.000114
  17 C :   -0.322852    0.000547
  18 C :   -0.107576   -0.000089
  19 H :    0.134073   -0.000091
  20 H :    0.095259   -0.000020
  21 H :    0.044304    0.000130
  22 H :    0.077527    0.000012
  23 H :    0.099393    0.000096
  24 H :    0.154362   -0.000110
  25 C :   -0.107663   -0.000059
  26 H :    0.099538    0.000094
  27 H :    0.153755   -0.000109
  28 H :    0.077528    0.000005
  29 H :    0.044363    0.000119
  30 H :    0.135092   -0.000097
  31 H :    0.095484   -0.000013
Sum of atomic charges         :   -2.0000000

LOEWDIN ATOMIC CHARGES AND SPIN POPULATIONS
-------------------------------------------
   0 V :   -0.252710    1.149255
   1 S :    0.113297   -0.014850
   2 S :    0.081549   -0.016877
   3 S :    0.081141   -0.016504
   4 S :    0.113867   -0.014174
   5 O :   -0.348134   -0.124105
   6 C :   -0.537464    0.009417
   7 C :   -0.545827    0.011216
   8 C :   -0.546111    0.010864
   9 C :   -0.538344    0.009603
  10 S :    0.314739   -0.001174
  11 S :    0.326702   -0.001066
  12 S :    0.316444   -0.001175
  13 S :    0.327619   -0.001086
  14 C :   -0.303535    0.000276
  15 C :   -0.291197    0.000076
  16 C :   -0.291037    0.000039
  17 C :   -0.303042    0.000271
  18 C :   -0.185707   -0.000026
  19 H :    0.062367   -0.000027
  20 H :    0.050167   -0.000011
  21 H :    0.046605    0.000029
  22 H :    0.053633    0.000016
  23 H :    0.044491    0.000029
  24 H :    0.069386   -0.000010
  25 C :   -0.185606   -0.000030
  26 H :    0.044579    0.000029
  27 H :    0.069199   -0.000013
  28 H :    0.053641    0.000014
  29 H :    0.046645    0.000028
  30 H :    0.062602   -0.000029
  31 H :    0.050043   -0.000005

  Mayer bond orders larger than 0.100000
B(  0-V ,  1-S ) :   0.7911 B(  0-V ,  2-S ) :   0.7946 B(  0-V ,  3-S ) :   0.7960
B(  0-V ,  4-S ) :   0.7901 B(  0-V ,  5-O ) :   2.1054 B(  1-S ,  8-C ) :   1.1410
B(  2-S ,  6-C ) :   1.0832 B(  3-S ,  9-C ) :   1.0827 B(  4-S ,  7-C ) :   1.1392
B(  6-C ,  7-C ) :   1.5197 B(  6-C , 10-S ) :   0.9503 B(  7-C , 11-S ) :   0.9325
B(  8-C ,  9-C ) :   1.5254 B(  8-C , 13-S ) :   0.9332 B(  9-C , 12-S ) :   0.9508
B( 10-S , 16-C ) :   0.9996 B( 11-S , 14-C ) :   1.0060 B( 12-S , 15-C ) :   1.0004
B( 13-S , 17-C ) :   1.0059 B( 14-C , 18-C ) :   0.8719 B( 14-C , 23-H ) :   0.9586
B( 14-C , 24-H ) :   0.9949 B( 15-C , 25-C ) :   0.9101 B( 15-C , 30-H ) :   0.9647
B( 15-C , 31-H ) :   0.9760 B( 16-C , 18-C ) :   0.9112 B( 16-C , 19-H ) :   0.9643
B( 16-C , 20-H ) :   0.9762 B( 17-C , 25-C ) :   0.8720 B( 17-C , 26-H ) :   0.9590
B( 17-C , 27-H ) :   0.9942 B( 18-C , 21-H ) :   0.9560 B( 18-C , 22-H ) :   0.9686
B( 25-C , 28-H ) :   0.9689 B( 25-C , 29-H ) :   0.9559

FINAL SINGLE POINT ENERGY     -4592.644022756963

DIPOLE MOMENT
-------------
                                X             Y             Z
Electronic contribution:     21.88914     -14.49235      -5.30287
Nuclear contribution   :    -24.32783      16.08494       5.89994
                        -----------------------------------------
Total Dipole Moment    :     -2.43869       1.59259       0.59707
                        -----------------------------------------
Magnitude (a.u.)       :      2.97322
Magnitude (Debye)      :      7.55733

Rotational constants in cm-1:     0.012738     0.002547     0.002431
Rotational constants in MHz :   381.869668    76.358112    72.882792

                             ****ORCA TERMINATED NORMALLY****
TOTAL RUN TIME: 0 days 0 hours 43 minutes 11 seconds 548 msec
