                         Program Version 5.0.4 -  RELEASE  -
|  1> ! nofrozencore ReducedPop printbasis
|  2> ! B3LYP TZVP
|  3>
|  4> %basis
|  5> newgto V "CP(PPP)" end
|  6> end
|  7>
|  8> %pal
|  9> nprocs 8
| 10> end
| 11>
| 12> % sym SymThresh 1e-2 end
| 13> * xyz -2 2
| 14> V -0.8288023339276528 0.660717075424548 -0.3470947538821466
| 15> S -1.7740622088385238 -0.9415476164326189 1.2480765272614618
| 16> S 0.21384033892961168 1.7176669723309852 1.600482200539817
| 17> S -0.7499456833794582 -1.2902212416249859 -1.8257643799116567
| 18> S 1.2167034916567532 1.3891326031341422 -1.4841403937677282
| 19> O -2.019518991797304 1.6032035469101604 -0.8414704715375833
| 20> C 1.5111451413360362 2.70334442974388 0.912252219546342
| 21> C 1.9283971680294687 2.5636503484639337 -0.3735468591671929
| 22> C -2.2249858930791935 -2.320246844396987 0.24635605584277512
| 23> C -1.7985394811561934 -2.46533672089617 -1.0337659589110726
| 24> S 2.2528880532560076 3.8842534762139507 2.0584817665466923
| 25> S 3.277022408568979 3.5442965656558547 -1.0699199887327473
| 26> S -2.2359686872901134 -3.9037935779031443 -2.0576498276738664
| 27> S -3.28054197685502 -3.5479249124689844 1.075624947758327
| 28> C 4.743005588067349 2.941149695807622 -0.13899827421098906
| 29> C -1.370172980957732 -5.220253808012135 -1.223652775225961
| 30> C 3.9446889674437 3.208409874798586 2.3032108799794853
| 31> C -2.181142660216115 -4.944800816318786 1.205504570231253
| 32> C 4.99762907488436 3.5659887024359476 1.2421036089355346
| 33> H 3.8442849132489276 2.127581447864886 2.423689485799252
| 34> H 4.247667705594404 3.623031860051643 3.270250470316624
| 35> H 5.996335224305727 3.2700803817898527 1.600994611868674
| 36> H 5.007039942941667 4.656189774639896 1.1260162552368298
| 37> H 5.581344580899546 3.1742588532169322 -0.8035921702369904
| 38> H 4.660455064255456 1.8537077051960555 -0.08007894371465751
| 39> C -2.020134429162686 -6.001407637524803 0.013581602133079395
| 40> H -2.713425600494897 -5.419958973722721 2.0516183663867533
| 41> H -1.2378557162263786 -4.565927703695502 1.6198421375777932
| 42> H -3.097041936043361 -6.055933721301503 -0.339965052536466
| 43> H -1.6774727962626987 -7.048537457503615 0.24704585012719027
| 44> H -0.34282310939384114 -4.8690116198100135 -1.0618143464686334
| 45> H -1.3253468627051888 -5.891320877786116 -2.1027002197978524
| 46> *
| 47>
| 48> % eprnmr
| 49> gtensor true
| 50> Nuclei = all H {aiso,adip,aorb,fgrad,rho}
| 51> Nuclei = all V {aiso,adip,aorb,fgrad,rho}
| 52> end
| 53>
| 54>                          ****END OF INPUT****

CARTESIAN COORDINATES (ANGSTROEM)
---------------------------------
  V     -0.829636    0.661484   -0.347449
  S     -1.774896   -0.940781    1.247723
  S      0.213007    1.718434    1.600128
  S     -0.750779   -1.289454   -1.826118
  S      1.215870    1.389900   -1.484494
  O     -2.020353    1.603970   -0.841824
  C      1.510311    2.704111    0.911898
  C      1.927563    2.564417   -0.373901
  C     -2.225820   -2.319480    0.246002
  C     -1.799373   -2.464570   -1.034120
  S      2.252054    3.885020    2.058128
  S      3.276189    3.545063   -1.070274
  S     -2.236802   -3.903027   -2.058004
  S     -3.281376   -3.547158    1.075271
  C      4.742172    2.941917   -0.139352
  C     -1.371007   -5.219487   -1.224007
  C      3.943855    3.209177    2.302857
  C     -2.181976   -4.944034    1.205151
  C      4.996795    3.566756    1.241750
  H      3.843451    2.128348    2.423336
  H      4.246834    3.623799    3.269897
  H      5.995501    3.270847    1.600641
  H      5.006206    4.656957    1.125662
  H      5.580511    3.175026   -0.803946
  H      4.659621    1.854475   -0.080433
  C     -2.020968   -6.000641    0.013228
  H     -2.714259   -5.419192    2.051264
  H     -1.238689   -4.565161    1.619488
  H     -3.097876   -6.055167   -0.340319
  H     -1.678307   -7.047771    0.246692
  H     -0.343657   -4.868245   -1.062168
  H     -1.326181   -5.890554   -2.103054

 Total Charge           Charge          ....   -2
 Multiplicity           Mult            ....    2
 Number of Electrons    NEL             ....  233
 Basis Dimension        Dim             ....  517

ORBITAL ENERGIES
----------------
                 SPIN UP ORBITALS
  NO   OCC          E(Eh)            E(eV)
   0   1.0000    -196.640274     -5350.8539
   1   1.0000     -88.678959     -2413.0771
   2   1.0000     -88.678947     -2413.0768
   3   1.0000     -88.676759     -2413.0173
   4   1.0000     -88.676702     -2413.0157
   5   1.0000     -88.611911     -2411.2527
   6   1.0000     -88.611678     -2411.2463
   7   1.0000     -88.611581     -2411.2437
   8   1.0000     -88.611491     -2411.2413
   9   1.0000     -22.016085      -599.0881
  10   1.0000     -18.857167      -513.1296
  11   1.0000     -18.522891      -504.0335
  12   1.0000     -18.517143      -503.8771
  13   1.0000     -18.517106      -503.8761
  14   1.0000     -10.020247      -272.6648
  15   1.0000     -10.017512      -272.5903
  16   1.0000     -10.017496      -272.5899
  17   1.0000     -10.015201      -272.5275
  18   1.0000     -10.015190      -272.5272
  19   1.0000     -10.005817      -272.2721
  20   1.0000      -9.991549      -271.8839
  21   1.0000      -9.990791      -271.8632
  22   1.0000      -9.990041      -271.8428
  23   1.0000      -9.989318      -271.8232
  24   1.0000      -7.733302      -210.4339
  25   1.0000      -7.733290      -210.4335
  26   1.0000      -7.730506      -210.3578
  27   1.0000      -7.730435      -210.3558
  28   1.0000      -7.666371      -208.6126
  29   1.0000      -7.666157      -208.6067
  30   1.0000      -7.666135      -208.6061
  31   1.0000      -7.666025      -208.6032
  32   1.0000      -5.698485      -155.0636
  33   1.0000      -5.698469      -155.0632
  34   1.0000      -5.695744      -154.9891
  35   1.0000      -5.695673      -154.9871
  36   1.0000      -5.694495      -154.9551
  37   1.0000      -5.694487      -154.9549
  38   1.0000      -5.691840      -154.8828
  39   1.0000      -5.691771      -154.8810
  40   1.0000      -5.688113      -154.7814
  41   1.0000      -5.688107      -154.7813
  42   1.0000      -5.685262      -154.7038
  43   1.0000      -5.685192      -154.7019
  44   1.0000      -5.631227      -153.2335
  45   1.0000      -5.630992      -153.2271
  46   1.0000      -5.630967      -153.2264
  47   1.0000      -5.630859      -153.2235
  48   1.0000      -5.624796      -153.0585
  49   1.0000      -5.624598      -153.0531
  50   1.0000      -5.624590      -153.0529
  51   1.0000      -5.624495      -153.0503
  52   1.0000      -5.624356      -153.0465
  53   1.0000      -5.624120      -153.0401
  54   1.0000      -5.624098      -153.0395
  55   1.0000      -5.623989      -153.0365
  56   1.0000      -2.409747       -65.5726
  57   1.0000      -1.451033       -39.4846
  58   1.0000      -1.439541       -39.1719
  59   1.0000      -1.438464       -39.1426
  60   1.0000      -0.642933       -17.4951
  61   1.0000      -0.640990       -17.4422
  62   1.0000      -0.618176       -16.8214
  63   1.0000      -0.592429       -16.1208
  64   1.0000      -0.587130       -15.9766
  65   1.0000      -0.583956       -15.8903
  66   1.0000      -0.576958       -15.6998
  67   1.0000      -0.494739       -13.4625
  68   1.0000      -0.491140       -13.3646
  69   1.0000      -0.486294       -13.2327
  70   1.0000      -0.482131       -13.1194
  71   1.0000      -0.420991       -11.4557
  72   1.0000      -0.414235       -11.2719
  73   1.0000      -0.413582       -11.2542
  74   1.0000      -0.408577       -11.1180
  75   1.0000      -0.375160       -10.2086
  76   1.0000      -0.370922       -10.0933
  77   1.0000      -0.291492        -7.9319
  78   1.0000      -0.284282        -7.7357
  79   1.0000      -0.277810        -7.5596
  80   1.0000      -0.277471        -7.5504
  81   1.0000      -0.263665        -7.1747
  82   1.0000      -0.257732        -7.0133
  83   1.0000      -0.240167        -6.5353
  84   1.0000      -0.231277        -6.2934
  85   1.0000      -0.196089        -5.3359
  86   1.0000      -0.191973        -5.2239
  87   1.0000      -0.189734        -5.1629
  88   1.0000      -0.185539        -5.0488
  89   1.0000      -0.182445        -4.9646
  90   1.0000      -0.176683        -4.8078
  91   1.0000      -0.176138        -4.7930
  92   1.0000      -0.152736        -4.1562
  93   1.0000      -0.150399        -4.0926
  94   1.0000      -0.145743        -3.9659
  95   1.0000      -0.142918        -3.8890
  96   1.0000      -0.139405        -3.7934
  97   1.0000      -0.099080        -2.6961
  98   1.0000      -0.094678        -2.5763
  99   1.0000      -0.092944        -2.5291
 100   1.0000      -0.086319        -2.3489
 101   1.0000      -0.080206        -2.1825
 102   1.0000      -0.079495        -2.1632
 103   1.0000      -0.071306        -1.9403
 104   1.0000      -0.049459        -1.3459
 105   1.0000      -0.039186        -1.0663
 106   1.0000      -0.038252        -1.0409
 107   1.0000      -0.036783        -1.0009
 108   1.0000      -0.032230        -0.8770
 109   1.0000      -0.013836        -0.3765
 110   1.0000      -0.004300        -0.1170
 111   1.0000      -0.003732        -0.1016
 112   1.0000       0.006103         0.1661
 113   1.0000       0.010126         0.2755
 114   1.0000       0.016022         0.4360
 115   1.0000       0.034235         0.9316
 116   1.0000       0.060509         1.6465
 117   0.0000       0.190751         5.1906
 118   0.0000       0.197170         5.3653
 119   0.0000       0.198197         5.3932
 120   0.0000       0.198376         5.3981
 121   0.0000       0.211682         5.7601

                 SPIN DOWN ORBITALS
  NO   OCC          E(Eh)            E(eV)
   0   1.0000    -196.640415     -5350.8577
   1   1.0000     -88.678972     -2413.0775
   2   1.0000     -88.678961     -2413.0772
   3   1.0000     -88.676772     -2413.0177
   4   1.0000     -88.676716     -2413.0161
   5   1.0000     -88.612070     -2411.2570
   6   1.0000     -88.611838     -2411.2507
   7   1.0000     -88.611739     -2411.2480
   8   1.0000     -88.611649     -2411.2456
   9   1.0000     -22.001406      -598.6887
  10   1.0000     -18.860746      -513.2270
  11   1.0000     -18.517756      -503.8938
  12   1.0000     -18.501640      -503.4552
  13   1.0000     -18.500962      -503.4368
  14   1.0000     -10.020248      -272.6648
  15   1.0000     -10.017508      -272.5902
  16   1.0000     -10.017492      -272.5898
  17   1.0000     -10.015197      -272.5274
  18   1.0000     -10.015186      -272.5271
  19   1.0000     -10.005816      -272.2721
  20   1.0000      -9.991296      -271.8770
  21   1.0000      -9.990539      -271.8564
  22   1.0000      -9.989791      -271.8360
  23   1.0000      -9.989070      -271.8164
  24   1.0000      -7.733317      -210.4342
  25   1.0000      -7.733304      -210.4339
  26   1.0000      -7.730520      -210.3581
  27   1.0000      -7.730449      -210.3562
  28   1.0000      -7.666518      -208.6166
  29   1.0000      -7.666306      -208.6108
  30   1.0000      -7.666282      -208.6102
  31   1.0000      -7.666173      -208.6072
  32   1.0000      -5.698503      -155.0642
  33   1.0000      -5.698488      -155.0637
  34   1.0000      -5.695761      -154.9895
  35   1.0000      -5.695690      -154.9876
  36   1.0000      -5.694515      -154.9556
  37   1.0000      -5.694506      -154.9554
  38   1.0000      -5.691860      -154.8834
  39   1.0000      -5.691791      -154.8815
  40   1.0000      -5.688130      -154.7819
  41   1.0000      -5.688124      -154.7817
  42   1.0000      -5.685279      -154.7043
  43   1.0000      -5.685209      -154.7024
  44   1.0000      -5.631398      -153.2381
  45   1.0000      -5.631163      -153.2317
  46   1.0000      -5.631136      -153.2310
  47   1.0000      -5.631028      -153.2281
  48   1.0000      -5.625186      -153.0691
  49   1.0000      -5.624988      -153.0637
  50   1.0000      -5.624981      -153.0635
  51   1.0000      -5.624885      -153.0609
  52   1.0000      -5.624489      -153.0501
  53   1.0000      -5.624255      -153.0438
  54   1.0000      -5.624230      -153.0431
  55   1.0000      -5.624121      -153.0401
  56   1.0000      -2.365536       -64.3695
  57   1.0000      -1.432189       -38.9718
  58   1.0000      -1.378094       -37.4999
  59   1.0000      -1.377454       -37.4824
  60   1.0000      -0.642881       -17.4937
  61   1.0000      -0.640926       -17.4405
  62   1.0000      -0.625849       -17.0302
  63   1.0000      -0.592235       -16.1155
  64   1.0000      -0.587133       -15.9767
  65   1.0000      -0.583776       -15.8854
  66   1.0000      -0.576954       -15.6997
  67   1.0000      -0.494759       -13.4631
  68   1.0000      -0.491170       -13.3654
  69   1.0000      -0.486308       -13.2331
  70   1.0000      -0.482178       -13.1207
  71   1.0000      -0.421251       -11.4628
  72   1.0000      -0.414253       -11.2724
  73   1.0000      -0.413831       -11.2609
  74   1.0000      -0.408679       -11.1207
  75   1.0000      -0.375125       -10.2077
  76   1.0000      -0.370935       -10.0937
  77   1.0000      -0.291473        -7.9314
  78   1.0000      -0.284258        -7.7351
  79   1.0000      -0.277791        -7.5591
  80   1.0000      -0.277465        -7.5502
  81   1.0000      -0.263517        -7.1707
  82   1.0000      -0.257681        -7.0118
  83   1.0000      -0.240064        -6.5325
  84   1.0000      -0.231181        -6.2908
  85   1.0000      -0.195546        -5.3211
  86   1.0000      -0.191884        -5.2214
  87   1.0000      -0.189691        -5.1618
  88   1.0000      -0.185502        -5.0478
  89   1.0000      -0.181682        -4.9438
  90   1.0000      -0.176592        -4.8053
  91   1.0000      -0.174804        -4.7566
  92   1.0000      -0.152509        -4.1500
  93   1.0000      -0.149786        -4.0759
  94   1.0000      -0.145536        -3.9602
  95   1.0000      -0.142669        -3.8822
  96   1.0000      -0.139283        -3.7901
  97   1.0000      -0.097660        -2.6575
  98   1.0000      -0.094190        -2.5631
  99   1.0000      -0.092696        -2.5224
 100   1.0000      -0.086317        -2.3488
 101   1.0000      -0.082066        -2.2331
 102   1.0000      -0.079052        -2.1511
 103   1.0000      -0.072696        -1.9782
 104   1.0000      -0.045588        -1.2405
 105   1.0000      -0.039287        -1.0691
 106   1.0000      -0.037415        -1.0181
 107   1.0000      -0.035880        -0.9763
 108   1.0000      -0.032202        -0.8763
 109   1.0000      -0.012922        -0.3516
 110   1.0000      -0.005651        -0.1538
 111   1.0000      -0.002603        -0.0708
 112   1.0000       0.006832         0.1859
 113   1.0000       0.011014         0.2997
 114   1.0000       0.034514         0.9392
 115   1.0000       0.059726         1.6252
 116   0.0000       0.185511         5.0480
 117   0.0000       0.192075         5.2266
 118   0.0000       0.197326         5.3695
 119   0.0000       0.198818         5.4101
 120   0.0000       0.199179         5.4199

MULLIKEN ATOMIC CHARGES AND SPIN POPULATIONS
--------------------------------------------
   0 V :    0.448930    1.199624
   1 S :   -0.257028   -0.023933
   2 S :   -0.254668   -0.024168
   3 S :   -0.257285   -0.023810
   4 S :   -0.254116   -0.023978
   5 O :   -0.506832   -0.138904
   6 C :   -0.118117    0.008860
   7 C :   -0.115923    0.008823
   8 C :   -0.119835    0.008649
   9 C :   -0.119937    0.008558
  10 S :   -0.042744   -0.000178
  11 S :   -0.043694   -0.000227
  12 S :   -0.032755   -0.000324
  13 S :   -0.032586   -0.000349
  14 C :   -0.338551    0.000298
  15 C :   -0.331684    0.000386
  16 C :   -0.337246    0.000282
  17 C :   -0.331700    0.000403
  18 C :   -0.087203    0.000125
  19 H :    0.147562   -0.000103
  20 H :    0.100259    0.000021
  21 H :    0.048435    0.000048
  22 H :    0.077525    0.000008
  23 H :    0.100415    0.000021
  24 H :    0.148091   -0.000106
  25 C :   -0.104675    0.000108
  26 H :    0.083378    0.000024
  27 H :    0.150130   -0.000118
  28 H :    0.070602   -0.000069
  29 H :    0.077732    0.000123
  30 H :    0.150198   -0.000116
  31 H :    0.083323    0.000022
Sum of atomic charges         :   -2.0000000

LOEWDIN ATOMIC CHARGES AND SPIN POPULATIONS
-------------------------------------------
   0 V :   -0.240737    1.153760
   1 S :    0.087228   -0.016215
   2 S :    0.087202   -0.016355
   3 S :    0.087168   -0.016121
   4 S :    0.088349   -0.016228
   5 O :   -0.351411   -0.124341
   6 C :   -0.553079    0.009993
   7 C :   -0.551973    0.009899
   8 C :   -0.549376    0.009759
   9 C :   -0.549685    0.009759
  10 S :    0.340036   -0.001030
  11 S :    0.338825   -0.001064
  12 S :    0.357903   -0.001138
  13 S :    0.358097   -0.001146
  14 C :   -0.296368    0.000161
  15 C :   -0.315039    0.000149
  16 C :   -0.296332    0.000155
  17 C :   -0.315190    0.000158
  18 C :   -0.184343   -0.000040
  19 H :    0.065411   -0.000028
  20 H :    0.046400    0.000005
  21 H :    0.047255    0.000016
  22 H :    0.053868    0.000013
  23 H :    0.046445    0.000006
  24 H :    0.065564   -0.000029
  25 C :   -0.195007   -0.000069
  26 H :    0.042484    0.000011
  27 H :    0.062981   -0.000038
  28 H :    0.061394    0.000007
  29 H :    0.056447    0.000020
  30 H :    0.063030   -0.000038
  31 H :    0.042453    0.000010

  Mayer bond orders larger than 0.100000
B(  0-V ,  1-S ) :   0.7872 B(  0-V ,  2-S ) :   0.7913 B(  0-V ,  3-S ) :   0.7890
B(  0-V ,  4-S ) :   0.7879 B(  0-V ,  5-O ) :   2.1078 B(  1-S ,  8-C ) :   1.1397
B(  2-S ,  6-C ) :   1.1353 B(  3-S ,  9-C ) :   1.1389 B(  4-S ,  7-C ) :   1.1393
B(  6-C ,  7-C ) :   1.5202 B(  6-C , 10-S ) :   0.9537 B(  7-C , 11-S ) :   0.9514
B(  8-C ,  9-C ) :   1.5266 B(  8-C , 13-S ) :   0.9425 B(  9-C , 12-S ) :   0.9423
B( 10-S , 16-C ) :   1.0076 B( 11-S , 14-C ) :   1.0079 B( 12-S , 15-C ) :   1.0288
B( 13-S , 17-C ) :   1.0290 B( 14-C , 18-C ) :   0.8752 B( 14-C , 23-H ) :   0.9713
B( 14-C , 24-H ) :   0.9741 B( 15-C , 25-C ) :   0.8569 B( 15-C , 30-H ) :   0.9629
B( 15-C , 31-H ) :   0.9762 B( 16-C , 18-C ) :   0.8752 B( 16-C , 19-H ) :   0.9741
B( 16-C , 20-H ) :   0.9713 B( 17-C , 25-C ) :   0.8568 B( 17-C , 26-H ) :   0.9762
B( 17-C , 27-H ) :   0.9628 B( 18-C , 21-H ) :   0.9500 B( 18-C , 22-H ) :   0.9777
B( 25-C , 28-H ) :   0.9956 B( 25-C , 29-H ) :   0.9303

FINAL SINGLE POINT ENERGY     -4592.694822336865

DIPOLE MOMENT
-------------
                                X             Y             Z
Electronic contribution:    -19.39443      15.53700      -8.14469
Nuclear contribution   :     21.60008     -17.26035       9.06299
                        -----------------------------------------
Total Dipole Moment    :      2.20565      -1.72336       0.91829
                        -----------------------------------------
Magnitude (a.u.)       :      2.94586
Magnitude (Debye)      :      7.48779

Rotational constants in cm-1:     0.012768     0.002549     0.002430
Rotational constants in MHz :   382.775130    76.404685    72.843325

                             ****ORCA TERMINATED NORMALLY****
TOTAL RUN TIME: 0 days 0 hours 27 minutes 24 seconds 645 msec
