                         Program Version 5.0.4 -  RELEASE  -
|  1> ! nofrozencore ReducedPop printbasis
|  2> ! B3LYP TZVP
|  3>
|  4> %basis
|  5> newgto V "CP(PPP)" end
|  6> end
|  7>
|  8> %pal
|  9> nprocs 8
| 10> end
| 11>
| 12> % sym SymThresh 1e-2 end
| 13> * xyz -2 2
| 14> V -0.6789986541471776 -0.6748750970477363 0.5707620821113908
| 15> S -0.5933058674236764 1.391712621847978 1.7982738880761924
| 16> S -2.039709420591594 0.449470362987482 -1.0681530314776084
| 17> S 1.6498807067567045 -0.9440719514841464 1.4225279489131009
| 18> S 0.18991291882282094 -1.909680493964992 -1.413684448304791
| 19> O -1.7954752919792667 -1.4789014116743495 1.4116279804858585
| 20> C -1.9141021901515582 -0.5342426228302398 -2.5262731984572597
| 21> C -1.0190122389279084 -1.54828734315044 -2.661408343016961
| 22> C 0.8098022208561623 1.2451494939064418 2.854694840551431
| 23> C 1.7239434751700435 0.24560718967256268 2.738093049256139
| 24> S -3.100128879829356 -0.060626605603877115 -3.8020296601448202
| 25> S -0.9620740242164616 -2.5530467656233307 -4.160472148317927
| 26> S 3.12466696105013 0.1155122608679649 3.869722854339174
| 27> S 0.8910153363682173 2.556799541741487 4.093161545344155
| 28> C -0.2935375129476525 -1.332095116821203 -5.376439341127789
| 29> C 4.128304292334968 1.5732169164464875 3.3386158204033127
| 30> C -2.066720622425101 0.5436839719012101 -5.2134103590890035
| 31> C 2.432788181247667 3.4967738480456583 3.6897282582379467
| 32> C -1.3638605847130085 -0.5010804323481947 -6.083079202331501
| 33> H -1.3403111114785178 1.25869074259469 -4.806129225421082
| 34> H -2.7792282086242612 1.1079547059583603 -5.831409460895188
| 35> H -0.8895406040396499 0.03501269953440525 -6.921122311236603
| 36> H -2.109797873852113 -1.1765435246376008 -6.5180442966651
| 37> H 0.2728597254732775 -1.9139106191399429 -6.1161644876212256
| 38> H 0.4145007385257872 -0.6980729209469466 -4.83038138379064
| 39> C 3.7764097980565103 2.8692670722045754 4.06791409470399
| 40> H 2.3083975158870467 4.440416853724018 4.24033039830957
| 41> H 2.403723049204484 3.731630337303876 2.6171730182719033
| 42> H 3.8039467247022087 2.687347549047477 5.148826639754329
| 43> H 4.558142860717615 3.614435602341903 3.8482901399438916
| 44> H 3.996003948419169 1.66955803309346 2.253745019792947
| 45> H 5.178855706360401 1.3122718857603872 3.530747887946431
| 46> *
| 47>
| 48> % eprnmr
| 49> gtensor true
| 50> Nuclei = all H {aiso,adip,aorb,fgrad,rho}
| 51> Nuclei = all V {aiso,adip,aorb,fgrad,rho}
| 52> end
| 53>
| 54>                          ****END OF INPUT****

CARTESIAN COORDINATES (ANGSTROEM)
---------------------------------
  V     -0.679755   -0.675616    0.571298
  S     -0.594062    1.390971    1.798810
  S     -2.040465    0.448729   -1.067617
  S      1.649125   -0.944813    1.423064
  S      0.189157   -1.910422   -1.413149
  O     -1.796231   -1.479643    1.412164
  C     -1.914858   -0.534984   -2.525737
  C     -1.019768   -1.549029   -2.660872
  C      0.809046    1.244408    2.855231
  C      1.723187    0.244866    2.738629
  S     -3.100885   -0.061368   -3.801494
  S     -0.962830   -2.553788   -4.159936
  S      3.123911    0.114771    3.870259
  S      0.890259    2.556058    4.093697
  C     -0.294294   -1.332836   -5.375903
  C      4.127548    1.572476    3.339152
  C     -2.067477    0.542943   -5.212874
  C      2.432032    3.496032    3.690264
  C     -1.364617   -0.501822   -6.082543
  H     -1.341067    1.257949   -4.805593
  H     -2.779984    1.107213   -5.830874
  H     -0.890297    0.034271   -6.920586
  H     -2.110554   -1.177285   -6.517508
  H      0.272104   -1.914652   -6.115629
  H      0.413745   -0.698814   -4.829846
  C      3.775654    2.868526    4.068450
  H      2.307641    4.439675    4.240866
  H      2.402967    3.730889    2.617709
  H      3.803191    2.686606    5.149362
  H      4.557387    3.613694    3.848826
  H      3.995248    1.668817    2.254281
  H      5.178100    1.311531    3.531284

 Total Charge           Charge          ....   -2
 Multiplicity           Mult            ....    2
 Number of Electrons    NEL             ....  233
 Basis Dimension        Dim             ....  517

ORBITAL ENERGIES
----------------
                 SPIN UP ORBITALS
  NO   OCC          E(Eh)            E(eV)
   0   1.0000    -196.641877     -5350.8975
   1   1.0000     -88.677523     -2413.0381
   2   1.0000     -88.677348     -2413.0333
   3   1.0000     -88.676102     -2412.9994
   4   1.0000     -88.676007     -2412.9968
   5   1.0000     -88.612579     -2411.2708
   6   1.0000     -88.612379     -2411.2654
   7   1.0000     -88.612056     -2411.2566
   8   1.0000     -88.612043     -2411.2563
   9   1.0000     -22.017525      -599.1273
  10   1.0000     -18.855179      -513.0755
  11   1.0000     -18.524349      -504.0732
  12   1.0000     -18.518608      -503.9170
  13   1.0000     -18.518527      -503.9147
  14   1.0000     -10.018198      -272.6090
  15   1.0000     -10.017984      -272.6032
  16   1.0000     -10.015093      -272.5245
  17   1.0000     -10.015035      -272.5229
  18   1.0000     -10.005209      -272.2556
  19   1.0000     -10.005179      -272.2548
  20   1.0000      -9.992709      -271.9154
  21   1.0000      -9.992549      -271.9111
  22   1.0000      -9.990871      -271.8654
  23   1.0000      -9.990776      -271.8628
  24   1.0000      -7.730996      -210.3711
  25   1.0000      -7.730810      -210.3660
  26   1.0000      -7.729817      -210.3390
  27   1.0000      -7.729713      -210.3362
  28   1.0000      -7.667417      -208.6410
  29   1.0000      -7.667326      -208.6386
  30   1.0000      -7.666026      -208.6032
  31   1.0000      -7.666022      -208.6031
  32   1.0000      -5.696315      -155.0046
  33   1.0000      -5.696120      -154.9993
  34   1.0000      -5.694998      -154.9688
  35   1.0000      -5.694912      -154.9664
  36   1.0000      -5.692252      -154.8940
  37   1.0000      -5.692075      -154.8892
  38   1.0000      -5.691290      -154.8679
  39   1.0000      -5.691173      -154.8647
  40   1.0000      -5.685777      -154.7179
  41   1.0000      -5.685596      -154.7129
  42   1.0000      -5.684522      -154.6837
  43   1.0000      -5.684412      -154.6807
  44   1.0000      -5.632193      -153.2598
  45   1.0000      -5.632076      -153.2566
  46   1.0000      -5.630964      -153.2263
  47   1.0000      -5.630949      -153.2259
  48   1.0000      -5.625829      -153.0866
  49   1.0000      -5.625722      -153.0837
  50   1.0000      -5.625386      -153.0745
  51   1.0000      -5.625281      -153.0717
  52   1.0000      -5.624602      -153.0532
  53   1.0000      -5.624576      -153.0525
  54   1.0000      -5.623921      -153.0347
  55   1.0000      -5.623893      -153.0339
  56   1.0000      -2.410602       -65.5958
  57   1.0000      -1.450321       -39.4652
  58   1.0000      -1.440797       -39.2061
  59   1.0000      -1.439515       -39.1712
  60   1.0000      -0.643268       -17.5042
  61   1.0000      -0.643195       -17.5022
  62   1.0000      -0.615653       -16.7528
  63   1.0000      -0.593658       -16.1543
  64   1.0000      -0.593218       -16.1423
  65   1.0000      -0.575207       -15.6522
  66   1.0000      -0.574935       -15.6448
  67   1.0000      -0.491484       -13.3739
  68   1.0000      -0.489641       -13.3238
  69   1.0000      -0.487010       -13.2522
  70   1.0000      -0.485791       -13.2190
  71   1.0000      -0.422973       -11.5097
  72   1.0000      -0.420144       -11.4327
  73   1.0000      -0.412191       -11.2163
  74   1.0000      -0.407010       -11.0753
  75   1.0000      -0.376218       -10.2374
  76   1.0000      -0.373094       -10.1524
  77   1.0000      -0.292094        -7.9483
  78   1.0000      -0.291812        -7.9406
  79   1.0000      -0.277733        -7.5575
  80   1.0000      -0.277463        -7.5502
  81   1.0000      -0.260046        -7.0762
  82   1.0000      -0.255154        -6.9431
  83   1.0000      -0.241881        -6.5819
  84   1.0000      -0.239139        -6.5073
  85   1.0000      -0.195057        -5.3078
  86   1.0000      -0.192215        -5.2304
  87   1.0000      -0.191777        -5.2185
  88   1.0000      -0.191187        -5.2025
  89   1.0000      -0.184633        -5.0241
  90   1.0000      -0.184309        -5.0153
  91   1.0000      -0.180935        -4.9235
  92   1.0000      -0.150816        -4.1039
  93   1.0000      -0.149885        -4.0786
  94   1.0000      -0.143601        -3.9076
  95   1.0000      -0.143121        -3.8945
  96   1.0000      -0.141646        -3.8544
  97   1.0000      -0.097340        -2.6487
  98   1.0000      -0.094607        -2.5744
  99   1.0000      -0.088360        -2.4044
 100   1.0000      -0.082886        -2.2554
 101   1.0000      -0.082643        -2.2488
 102   1.0000      -0.075841        -2.0637
 103   1.0000      -0.066677        -1.8144
 104   1.0000      -0.050416        -1.3719
 105   1.0000      -0.040183        -1.0934
 106   1.0000      -0.036496        -0.9931
 107   1.0000      -0.035382        -0.9628
 108   1.0000      -0.031490        -0.8569
 109   1.0000      -0.014071        -0.3829
 110   1.0000      -0.004659        -0.1268
 111   1.0000      -0.002669        -0.0726
 112   1.0000       0.006509         0.1771
 113   1.0000       0.010326         0.2810
 114   1.0000       0.016582         0.4512
 115   1.0000       0.033696         0.9169
 116   1.0000       0.060002         1.6327
 117   0.0000       0.187688         5.1072
 118   0.0000       0.195042         5.3074
 119   0.0000       0.196000         5.3334
 120   0.0000       0.196402         5.3444
 121   0.0000       0.208496         5.6735

                 SPIN DOWN ORBITALS
  NO   OCC          E(Eh)            E(eV)
   0   1.0000    -196.642014     -5350.9012
   1   1.0000     -88.677539     -2413.0385
   2   1.0000     -88.677364     -2413.0338
   3   1.0000     -88.676112     -2412.9997
   4   1.0000     -88.676017     -2412.9971
   5   1.0000     -88.612749     -2411.2755
   6   1.0000     -88.612550     -2411.2701
   7   1.0000     -88.612211     -2411.2608
   8   1.0000     -88.612197     -2411.2605
   9   1.0000     -22.002739      -598.7250
  10   1.0000     -18.858933      -513.1776
  11   1.0000     -18.519092      -503.9301
  12   1.0000     -18.503062      -503.4939
  13   1.0000     -18.502281      -503.4727
  14   1.0000     -10.018189      -272.6088
  15   1.0000     -10.017976      -272.6030
  16   1.0000     -10.015092      -272.5245
  17   1.0000     -10.015033      -272.5229
  18   1.0000     -10.005209      -272.2556
  19   1.0000     -10.005179      -272.2548
  20   1.0000      -9.992412      -271.9073
  21   1.0000      -9.992257      -271.9031
  22   1.0000      -9.990659      -271.8596
  23   1.0000      -9.990569      -271.8572
  24   1.0000      -7.731013      -210.3716
  25   1.0000      -7.730826      -210.3665
  26   1.0000      -7.729828      -210.3393
  27   1.0000      -7.729724      -210.3365
  28   1.0000      -7.667575      -208.6453
  29   1.0000      -7.667484      -208.6429
  30   1.0000      -7.666170      -208.6071
  31   1.0000      -7.666166      -208.6070
  32   1.0000      -5.696335      -155.0052
  33   1.0000      -5.696139      -154.9998
  34   1.0000      -5.695013      -154.9692
  35   1.0000      -5.694927      -154.9668
  36   1.0000      -5.692274      -154.8946
  37   1.0000      -5.692097      -154.8898
  38   1.0000      -5.691308      -154.8684
  39   1.0000      -5.691191      -154.8652
  40   1.0000      -5.685803      -154.7186
  41   1.0000      -5.685621      -154.7136
  42   1.0000      -5.684530      -154.6839
  43   1.0000      -5.684420      -154.6809
  44   1.0000      -5.632382      -153.2649
  45   1.0000      -5.632266      -153.2618
  46   1.0000      -5.631119      -153.2305
  47   1.0000      -5.631105      -153.2302
  48   1.0000      -5.626233      -153.0976
  49   1.0000      -5.626126      -153.0947
  50   1.0000      -5.625535      -153.0786
  51   1.0000      -5.625433      -153.0758
  52   1.0000      -5.624981      -153.0635
  53   1.0000      -5.624952      -153.0627
  54   1.0000      -5.624061      -153.0385
  55   1.0000      -5.624032      -153.0377
  56   1.0000      -2.366046       -64.3834
  57   1.0000      -1.430964       -38.9385
  58   1.0000      -1.379107       -37.5274
  59   1.0000      -1.378220       -37.5033
  60   1.0000      -0.643218       -17.5028
  61   1.0000      -0.643141       -17.5008
  62   1.0000      -0.623891       -16.9769
  63   1.0000      -0.593480       -16.1494
  64   1.0000      -0.593009       -16.1366
  65   1.0000      -0.575199       -15.6520
  66   1.0000      -0.574927       -15.6446
  67   1.0000      -0.491500       -13.3744
  68   1.0000      -0.489668       -13.3245
  69   1.0000      -0.487030       -13.2528
  70   1.0000      -0.485829       -13.2201
  71   1.0000      -0.423221       -11.5164
  72   1.0000      -0.420459       -11.4413
  73   1.0000      -0.412209       -11.2168
  74   1.0000      -0.407114       -11.0781
  75   1.0000      -0.376179       -10.2364
  76   1.0000      -0.373128       -10.1533
  77   1.0000      -0.292072        -7.9477
  78   1.0000      -0.291800        -7.9403
  79   1.0000      -0.277708        -7.5568
  80   1.0000      -0.277450        -7.5498
  81   1.0000      -0.259831        -7.0704
  82   1.0000      -0.255113        -6.9420
  83   1.0000      -0.241775        -6.5790
  84   1.0000      -0.239062        -6.5052
  85   1.0000      -0.194629        -5.2961
  86   1.0000      -0.192158        -5.2289
  87   1.0000      -0.191726        -5.2171
  88   1.0000      -0.191164        -5.2018
  89   1.0000      -0.184555        -5.0220
  90   1.0000      -0.184250        -5.0137
  91   1.0000      -0.178875        -4.8674
  92   1.0000      -0.150159        -4.0860
  93   1.0000      -0.149563        -4.0698
  94   1.0000      -0.143395        -3.9020
  95   1.0000      -0.142800        -3.8858
  96   1.0000      -0.141587        -3.8528
  97   1.0000      -0.096733        -2.6322
  98   1.0000      -0.093300        -2.5388
  99   1.0000      -0.088395        -2.4053
 100   1.0000      -0.083179        -2.2634
 101   1.0000      -0.082281        -2.2390
 102   1.0000      -0.077755        -2.1158
 103   1.0000      -0.068164        -1.8548
 104   1.0000      -0.046242        -1.2583
 105   1.0000      -0.039804        -1.0831
 106   1.0000      -0.035670        -0.9706
 107   1.0000      -0.035258        -0.9594
 108   1.0000      -0.031350        -0.8531
 109   1.0000      -0.013162        -0.3582
 110   1.0000      -0.005063        -0.1378
 111   1.0000      -0.001646        -0.0448
 112   1.0000       0.007337         0.1997
 113   1.0000       0.011319         0.3080
 114   1.0000       0.033914         0.9228
 115   1.0000       0.059126         1.6089
 116   0.0000       0.183459         4.9922
 117   0.0000       0.190386         5.1807
 118   0.0000       0.195806         5.3282
 119   0.0000       0.196030         5.3342
 120   0.0000       0.196695         5.3523

MULLIKEN ATOMIC CHARGES AND SPIN POPULATIONS
--------------------------------------------
   0 V :    0.437450    1.208000
   1 S :   -0.223673   -0.025360
   2 S :   -0.225958   -0.025401
   3 S :   -0.277133   -0.024137
   4 S :   -0.276445   -0.023934
   5 O :   -0.509030   -0.145691
   6 C :   -0.133520    0.010560
   7 C :   -0.098556    0.007548
   8 C :   -0.133946    0.010862
   9 C :   -0.097712    0.007327
  10 S :   -0.040733   -0.000598
  11 S :   -0.048031    0.000201
  12 S :   -0.048324    0.000177
  13 S :   -0.040372   -0.000662
  14 C :   -0.347044    0.000057
  15 C :   -0.346815    0.000080
  16 C :   -0.329409    0.000396
  17 C :   -0.329615    0.000437
  18 C :   -0.084543    0.000153
  19 H :    0.135982   -0.000111
  20 H :    0.099070    0.000046
  21 H :    0.045070    0.000035
  22 H :    0.078970    0.000016
  23 H :    0.101782   -0.000014
  24 H :    0.158210   -0.000050
  25 C :   -0.084264    0.000147
  26 H :    0.098668    0.000057
  27 H :    0.135464   -0.000115
  28 H :    0.079056    0.000009
  29 H :    0.045071    0.000028
  30 H :    0.158925   -0.000052
  31 H :    0.101408   -0.000011
Sum of atomic charges         :   -2.0000000

LOEWDIN ATOMIC CHARGES AND SPIN POPULATIONS
-------------------------------------------
   0 V :   -0.238877    1.161104
   1 S :    0.119909   -0.016815
   2 S :    0.117369   -0.016851
   3 S :    0.060379   -0.016719
   4 S :    0.061323   -0.016585
   5 O :   -0.363678   -0.130817
   6 C :   -0.551247    0.011592
   7 C :   -0.554211    0.008493
   8 C :   -0.550331    0.011797
   9 C :   -0.554483    0.008314
  10 S :    0.337629   -0.001343
  11 S :    0.333510   -0.000723
  12 S :    0.333446   -0.000733
  13 S :    0.337591   -0.001391
  14 C :   -0.291936    0.000082
  15 C :   -0.291909    0.000084
  16 C :   -0.296108    0.000301
  17 C :   -0.296418    0.000334
  18 C :   -0.185341   -0.000039
  19 H :    0.062504   -0.000039
  20 H :    0.048656    0.000029
  21 H :    0.046750    0.000014
  22 H :    0.053515    0.000012
  23 H :    0.046835   -0.000019
  24 H :    0.070919   -0.000018
  25 C :   -0.185425   -0.000044
  26 H :    0.048748    0.000037
  27 H :    0.062323   -0.000041
  28 H :    0.053604    0.000009
  29 H :    0.046696    0.000012
  30 H :    0.071428   -0.000018
  31 H :    0.046830   -0.000018

  Mayer bond orders larger than 0.100000
B(  0-V ,  1-S ) :   0.8323 B(  0-V ,  2-S ) :   0.8307 B(  0-V ,  3-S ) :   0.7562
B(  0-V ,  4-S ) :   0.7544 B(  0-V ,  5-O ) :   2.1042 B(  1-S ,  8-C ) :   1.1406
B(  2-S ,  6-C ) :   1.1393 B(  3-S ,  9-C ) :   1.1334 B(  4-S ,  7-C ) :   1.1352
B(  6-C ,  7-C ) :   1.5169 B(  6-C , 10-S ) :   0.9637 B(  7-C , 11-S ) :   0.9434
B(  8-C ,  9-C ) :   1.5184 B(  8-C , 13-S ) :   0.9642 B(  9-C , 12-S ) :   0.9435
B( 10-S , 16-C ) :   1.0160 B( 11-S , 14-C ) :   0.9915 B( 12-S , 15-C ) :   0.9908
B( 13-S , 17-C ) :   1.0177 B( 14-C , 18-C ) :   0.8785 B( 14-C , 23-H ) :   0.9671
B( 14-C , 24-H ) :   0.9762 B( 15-C , 25-C ) :   0.8780 B( 15-C , 30-H ) :   0.9761
B( 15-C , 31-H ) :   0.9668 B( 16-C , 18-C ) :   0.8777 B( 16-C , 19-H ) :   0.9732
B( 16-C , 20-H ) :   0.9714 B( 17-C , 25-C ) :   0.8774 B( 17-C , 26-H ) :   0.9714
B( 17-C , 27-H ) :   0.9727 B( 18-C , 21-H ) :   0.9525 B( 18-C , 22-H ) :   0.9738
B( 25-C , 28-H ) :   0.9737 B( 25-C , 29-H ) :   0.9525

FINAL SINGLE POINT ENERGY     -4592.718292434028

DIPOLE MOMENT
-------------
                                X             Y             Z
Electronic contribution:    -16.14389     -16.27054      13.62715
Nuclear contribution   :     17.97194      18.19666     -15.19271
                        -----------------------------------------
Total Dipole Moment    :      1.82805       1.92612      -1.56556
                        -----------------------------------------
Magnitude (a.u.)       :      3.08264
Magnitude (Debye)      :      7.83546

Rotational constants in cm-1:     0.012755     0.002549     0.002430
Rotational constants in MHz :   382.390122    76.405913    72.857769

                             ****ORCA TERMINATED NORMALLY****
TOTAL RUN TIME: 0 days 0 hours 27 minutes 42 seconds 371 msec
