                         Program Version 5.0.4 -  RELEASE  -
|  1> ! nofrozencore ReducedPop printbasis
|  2> ! B3LYP TZVP
|  3>
|  4> %basis
|  5> newgto V "CP(PPP)" end
|  6> end
|  7>
|  8> %pal
|  9> nprocs 4
| 10> end
| 11>
| 12> % sym SymThresh 1e-2 end
| 13> * xyz -2 2
| 14> V -0.8269246948686265 -0.6328115081879936 -0.39984745938328276
| 15> S 0.7462726400392238 -2.111141951439309 0.7599143628639434
| 16> S -1.4766735902410555 0.13609789720844873 1.832726206354356
| 17> S 0.9412279727558062 -0.5441553368774029 -2.092421012541653
| 18> S -1.306158520868668 1.6868261866289334 -1.0301383151354313
| 19> O -2.007510856865549 -1.5434726206643423 -0.9709036879621462
| 20> C -2.290587044487019 1.677592351944492 1.5365811739168131
| 21> C -2.218187235869337 2.32452791518707 0.3435378574893955
| 22> C 1.9136194981530679 -2.5560354089804127 -0.49089424136847787
| 23> C 1.9950825472324878 -1.9029060419184824 -1.6803414972318753
| 24> S -3.198058928248564 2.337366290946387 2.949518460995825
| 25> S -3.017482906175189 3.914978020966836 0.04828309779964952
| 26> S 3.209478076681083 -2.329029224359707 -2.9447666308425724
| 27> S 3.011090997297828 -3.919319467286344 -0.05109780040531604
| 28> C -2.0743945938039166 5.059674038222381 1.1474038445959227
| 29> C 4.81012358499046 -1.8484147995838078 -2.1589448580802317
| 30> C -2.216724160863877 3.8317358433705078 3.408551690557448
| 31> C 4.6552385637811255 -3.093363862647792 0.10417773008552944
| 32> C -2.4866456861697697 5.138671368927805 2.6328654148294235
| 33> H -1.1347262393209334 3.549130437485453 3.3450310129611482
| 34> H -2.4696599600108606 4.0162825917904215 4.524920255371288
| 35> H -2.267700461337055 5.483149671701437 2.833772363176536
| 36> H -3.4669414252282156 5.318913636295558 2.6690809313242467
| 37> H -2.2242502251970433 6.108276059440728 0.6756048654251672
| 38> H -0.9910095396039478 4.792563653165505 1.050425601180721
| 39> C 5.409678873277093 -2.871404207199247 -1.2013716251235311
| 40> H 5.226818024154735 -3.739822582643156 0.7499594226519644
| 41> H 4.49483903885081 -2.157718554351797 0.6295854560325517
| 42> H 5.5359001642782 -3.8518323472522833 -1.7321972634268794
| 43> H 6.580557085105518 -2.4702357444605236 -0.9003760646191916
| 44> H 4.650572357144726 -0.895182510271695 -1.6658342524351026
| 45> H 5.483047044135874 -1.6836846285150426 -2.984582263082226
| 46> *
| 47>
| 48> % eprnmr
| 49> gtensor true
| 50> Nuclei = all H {aiso,adip,aorb,fgrad,rho}
| 51> Nuclei = all V {aiso,adip,aorb,fgrad,rho}
| 52> end
| 53>
| 54>                          ****END OF INPUT****

CARTESIAN COORDINATES (ANGSTROEM)
---------------------------------
  V     -0.827857   -0.633432   -0.400240
  S      0.745340   -2.111762    0.759522
  S     -1.477606    0.135478    1.832333
  S      0.940296   -0.544776   -2.092814
  S     -1.307091    1.686206   -1.030531
  O     -2.008443   -1.544093   -0.971297
  C     -2.291519    1.676972    1.536188
  C     -2.219120    2.323908    0.343145
  C      1.912687   -2.556656   -0.491287
  C      1.994150   -1.903526   -1.680734
  S     -3.198991    2.336746    2.949126
  S     -3.018415    3.914358    0.047890
  S      3.208546   -2.329650   -2.945159
  S      3.010159   -3.919940   -0.051491
  C     -2.075327    5.059054    1.147011
  C      4.809191   -1.849035   -2.159338
  C     -2.217657    3.831115    3.408159
  C      4.654306   -3.093984    0.103785
  C     -2.487578    5.138051    2.632473
  H     -1.135659    3.548510    3.344638
  H     -2.470592    4.015662    4.524527
  H     -2.268633    5.482529    2.833380
  H     -3.467874    5.318293    2.668688
  H     -2.225183    6.107656    0.675212
  H     -0.991942    4.791943    1.050033
  C      5.408746   -2.872025   -1.201764
  H      5.225886   -3.740443    0.749567
  H      4.493907   -2.158339    0.629193
  H      5.534968   -3.852453   -1.732590
  H      6.579625   -2.470856   -0.900769
  H      4.649640   -0.895803   -1.666227
  H      5.482115   -1.684305   -2.984975

 Total Charge           Charge          ....   -2
 Multiplicity           Mult            ....    2
 Number of Electrons    NEL             ....  233
 Basis Dimension        Dim             ....  517

ORBITAL ENERGIES
----------------
                 SPIN UP ORBITALS
  NO   OCC          E(Eh)            E(eV)
   0   1.0000    -196.640658     -5350.8643
   1   1.0000     -88.677982     -2413.0506
   2   1.0000     -88.677972     -2413.0503
   3   1.0000     -88.677549     -2413.0388
   4   1.0000     -88.677463     -2413.0364
   5   1.0000     -88.612783     -2411.2764
   6   1.0000     -88.612678     -2411.2736
   7   1.0000     -88.612372     -2411.2652
   8   1.0000     -88.612365     -2411.2650
   9   1.0000     -22.016474      -599.0987
  10   1.0000     -18.857706      -513.1443
  11   1.0000     -18.523300      -504.0446
  12   1.0000     -18.517522      -503.8874
  13   1.0000     -18.517486      -503.8864
  14   1.0000     -10.047847      -273.4158
  15   1.0000     -10.025046      -272.7954
  16   1.0000     -10.025024      -272.7948
  17   1.0000     -10.024164      -272.7714
  18   1.0000     -10.014472      -272.5076
  19   1.0000     -10.014452      -272.5071
  20   1.0000      -9.992763      -271.9169
  21   1.0000      -9.992294      -271.9042
  22   1.0000      -9.992049      -271.8975
  23   1.0000      -9.991574      -271.8845
  24   1.0000      -7.731637      -210.3885
  25   1.0000      -7.731624      -210.3882
  26   1.0000      -7.730994      -210.3710
  27   1.0000      -7.730928      -210.3692
  28   1.0000      -7.667174      -208.6344
  29   1.0000      -7.667099      -208.6324
  30   1.0000      -7.666826      -208.6250
  31   1.0000      -7.666806      -208.6244
  32   1.0000      -5.696874      -155.0198
  33   1.0000      -5.696865      -155.0196
  34   1.0000      -5.696254      -155.0030
  35   1.0000      -5.696193      -155.0013
  36   1.0000      -5.692968      -154.9135
  37   1.0000      -5.692959      -154.9133
  38   1.0000      -5.692369      -154.8972
  39   1.0000      -5.692295      -154.8952
  40   1.0000      -5.686405      -154.7350
  41   1.0000      -5.686393      -154.7346
  42   1.0000      -5.685739      -154.7168
  43   1.0000      -5.685672      -154.7150
  44   1.0000      -5.632044      -153.2557
  45   1.0000      -5.631947      -153.2531
  46   1.0000      -5.631672      -153.2456
  47   1.0000      -5.631651      -153.2450
  48   1.0000      -5.625608      -153.0806
  49   1.0000      -5.625535      -153.0786
  50   1.0000      -5.625261      -153.0711
  51   1.0000      -5.625246      -153.0707
  52   1.0000      -5.625159      -153.0683
  53   1.0000      -5.625081      -153.0662
  54   1.0000      -5.624798      -153.0585
  55   1.0000      -5.624790      -153.0583
  56   1.0000      -2.410165       -65.5839
  57   1.0000      -1.451525       -39.4980
  58   1.0000      -1.439944       -39.1829
  59   1.0000      -1.438859       -39.1533
  60   1.0000      -0.665261       -18.1027
  61   1.0000      -0.644023       -17.5247
  62   1.0000      -0.618812       -16.8387
  63   1.0000      -0.609620       -16.5886
  64   1.0000      -0.592426       -16.1207
  65   1.0000      -0.578543       -15.7430
  66   1.0000      -0.571176       -15.5425
  67   1.0000      -0.519492       -14.1361
  68   1.0000      -0.489191       -13.3116
  69   1.0000      -0.486889       -13.2489
  70   1.0000      -0.482370       -13.1260
  71   1.0000      -0.427859       -11.6426
  72   1.0000      -0.423745       -11.5307
  73   1.0000      -0.417845       -11.3701
  74   1.0000      -0.407514       -11.0890
  75   1.0000      -0.380142       -10.3442
  76   1.0000      -0.374143       -10.1809
  77   1.0000      -0.333289        -9.0693
  78   1.0000      -0.295667        -8.0455
  79   1.0000      -0.280781        -7.6404
  80   1.0000      -0.265047        -7.2123
  81   1.0000      -0.261296        -7.1102
  82   1.0000      -0.254801        -6.9335
  83   1.0000      -0.242952        -6.6111
  84   1.0000      -0.236335        -6.4310
  85   1.0000      -0.208173        -5.6647
  86   1.0000      -0.197116        -5.3638
  87   1.0000      -0.191231        -5.2037
  88   1.0000      -0.190751        -5.1906
  89   1.0000      -0.182288        -4.9603
  90   1.0000      -0.180398        -4.9089
  91   1.0000      -0.179358        -4.8806
  92   1.0000      -0.151341        -4.1182
  93   1.0000      -0.150442        -4.0937
  94   1.0000      -0.144323        -3.9272
  95   1.0000      -0.143976        -3.9178
  96   1.0000      -0.142264        -3.8712
  97   1.0000      -0.098260        -2.6738
  98   1.0000      -0.096838        -2.6351
  99   1.0000      -0.091096        -2.4788
 100   1.0000      -0.084673        -2.3041
 101   1.0000      -0.081935        -2.2296
 102   1.0000      -0.080761        -2.1976
 103   1.0000      -0.070703        -1.9239
 104   1.0000      -0.050602        -1.3770
 105   1.0000      -0.038834        -1.0567
 106   1.0000      -0.038786        -1.0554
 107   1.0000      -0.036169        -0.9842
 108   1.0000      -0.032794        -0.8924
 109   1.0000      -0.013801        -0.3755
 110   1.0000      -0.004896        -0.1332
 111   1.0000      -0.003960        -0.1078
 112   1.0000       0.005611         0.1527
 113   1.0000       0.009971         0.2713
 114   1.0000       0.015701         0.4272
 115   1.0000       0.033018         0.8985
 116   1.0000       0.059196         1.6108
 117   0.0000       0.187755         5.1091
 118   0.0000       0.188065         5.1175
 119   0.0000       0.195225         5.3123
 120   0.0000       0.202739         5.5168
 121   0.0000       0.210724         5.7341

                 SPIN DOWN ORBITALS
  NO   OCC          E(Eh)            E(eV)
   0   1.0000    -196.640800     -5350.8682
   1   1.0000     -88.677996     -2413.0509
   2   1.0000     -88.677985     -2413.0507
   3   1.0000     -88.677562     -2413.0391
   4   1.0000     -88.677476     -2413.0368
   5   1.0000     -88.612942     -2411.2807
   6   1.0000     -88.612837     -2411.2779
   7   1.0000     -88.612531     -2411.2696
   8   1.0000     -88.612525     -2411.2694
   9   1.0000     -22.001804      -598.6995
  10   1.0000     -18.861291      -513.2418
  11   1.0000     -18.518168      -503.9050
  12   1.0000     -18.502033      -503.4659
  13   1.0000     -18.501349      -503.4473
  14   1.0000     -10.047847      -273.4158
  15   1.0000     -10.025042      -272.7953
  16   1.0000     -10.025020      -272.7947
  17   1.0000     -10.024164      -272.7714
  18   1.0000     -10.014468      -272.5075
  19   1.0000     -10.014448      -272.5070
  20   1.0000      -9.992508      -271.9100
  21   1.0000      -9.992039      -271.8972
  22   1.0000      -9.991796      -271.8906
  23   1.0000      -9.991321      -271.8777
  24   1.0000      -7.731651      -210.3889
  25   1.0000      -7.731638      -210.3886
  26   1.0000      -7.731007      -210.3714
  27   1.0000      -7.730942      -210.3696
  28   1.0000      -7.667322      -208.6384
  29   1.0000      -7.667247      -208.6364
  30   1.0000      -7.666975      -208.6290
  31   1.0000      -7.666955      -208.6284
  32   1.0000      -5.696891      -155.0203
  33   1.0000      -5.696882      -155.0200
  34   1.0000      -5.696271      -155.0034
  35   1.0000      -5.696210      -155.0017
  36   1.0000      -5.692988      -154.9141
  37   1.0000      -5.692980      -154.9138
  38   1.0000      -5.692389      -154.8978
  39   1.0000      -5.692315      -154.8958
  40   1.0000      -5.686423      -154.7354
  41   1.0000      -5.686411      -154.7351
  42   1.0000      -5.685755      -154.7173
  43   1.0000      -5.685688      -154.7154
  44   1.0000      -5.632216      -153.2604
  45   1.0000      -5.632118      -153.2577
  46   1.0000      -5.631844      -153.2503
  47   1.0000      -5.631823      -153.2497
  48   1.0000      -5.625998      -153.0912
  49   1.0000      -5.625927      -153.0892
  50   1.0000      -5.625650      -153.0817
  51   1.0000      -5.625637      -153.0814
  52   1.0000      -5.625293      -153.0720
  53   1.0000      -5.625215      -153.0699
  54   1.0000      -5.624935      -153.0623
  55   1.0000      -5.624925      -153.0620
  56   1.0000      -2.365976       -64.3815
  57   1.0000      -1.432691       -38.9855
  58   1.0000      -1.378532       -37.5118
  59   1.0000      -1.377881       -37.4940
  60   1.0000      -0.665252       -18.1024
  61   1.0000      -0.643968       -17.5233
  62   1.0000      -0.626457       -17.0468
  63   1.0000      -0.609452       -16.5840
  64   1.0000      -0.592228       -16.1154
  65   1.0000      -0.578538       -15.7428
  66   1.0000      -0.571169       -15.5423
  67   1.0000      -0.519460       -14.1352
  68   1.0000      -0.489195       -13.3117
  69   1.0000      -0.486929       -13.2500
  70   1.0000      -0.482405       -13.1269
  71   1.0000      -0.427935       -11.6447
  72   1.0000      -0.424008       -11.5379
  73   1.0000      -0.418119       -11.3776
  74   1.0000      -0.407565       -11.0904
  75   1.0000      -0.380109       -10.3433
  76   1.0000      -0.374158       -10.1813
  77   1.0000      -0.333284        -9.0691
  78   1.0000      -0.295653        -8.0451
  79   1.0000      -0.280763        -7.6399
  80   1.0000      -0.265010        -7.2113
  81   1.0000      -0.261122        -7.1055
  82   1.0000      -0.254711        -6.9310
  83   1.0000      -0.242855        -6.6084
  84   1.0000      -0.236287        -6.4297
  85   1.0000      -0.207960        -5.6589
  86   1.0000      -0.197082        -5.3629
  87   1.0000      -0.191200        -5.2028
  88   1.0000      -0.190534        -5.1847
  89   1.0000      -0.180769        -4.9190
  90   1.0000      -0.180350        -4.9076
  91   1.0000      -0.178613        -4.8603
  92   1.0000      -0.150683        -4.1003
  93   1.0000      -0.150147        -4.0857
  94   1.0000      -0.144020        -3.9190
  95   1.0000      -0.143771        -3.9122
  96   1.0000      -0.142163        -3.8684
  97   1.0000      -0.096739        -2.6324
  98   1.0000      -0.096350        -2.6218
  99   1.0000      -0.091128        -2.4797
 100   1.0000      -0.084705        -2.3049
 101   1.0000      -0.082648        -2.2490
 102   1.0000      -0.081482        -2.2173
 103   1.0000      -0.072038        -1.9602
 104   1.0000      -0.046476        -1.2647
 105   1.0000      -0.038954        -1.0600
 106   1.0000      -0.038001        -1.0341
 107   1.0000      -0.035231        -0.9587
 108   1.0000      -0.032762        -0.8915
 109   1.0000      -0.012890        -0.3507
 110   1.0000      -0.006196        -0.1686
 111   1.0000      -0.002959        -0.0805
 112   1.0000       0.006434         0.1751
 113   1.0000       0.010868         0.2957
 114   1.0000       0.033270         0.9053
 115   1.0000       0.058403         1.5892
 116   0.0000       0.184524         5.0211
 117   0.0000       0.188389         5.1263
 118   0.0000       0.188992         5.1427
 119   0.0000       0.195823         5.3286
 120   0.0000       0.202939         5.5222

MULLIKEN ATOMIC CHARGES AND SPIN POPULATIONS
--------------------------------------------
   0 V :    0.447525    1.199323
   1 S :   -0.253075   -0.024110
   2 S :   -0.253082   -0.024133
   3 S :   -0.253234   -0.024040
   4 S :   -0.253404   -0.024059
   5 O :   -0.506234   -0.138936
   6 C :   -0.115586    0.008865
   7 C :   -0.113903    0.008870
   8 C :   -0.116067    0.008921
   9 C :   -0.117088    0.008853
  10 S :   -0.039391   -0.000100
  11 S :   -0.039395   -0.000137
  12 S :   -0.044292   -0.000228
  13 S :   -0.044467   -0.000258
  14 C :   -0.372741    0.000224
  15 C :   -0.335805    0.000314
  16 C :   -0.372592    0.000210
  17 C :   -0.335215    0.000332
  18 C :    0.009486    0.000427
  19 H :    0.140304   -0.000097
  20 H :    0.076835    0.000020
  21 H :    0.068326   -0.000179
  22 H :    0.078542   -0.000050
  23 H :    0.076699    0.000021
  24 H :    0.140450   -0.000098
  25 C :   -0.066748    0.000096
  26 H :    0.110577    0.000026
  27 H :    0.149689   -0.000109
  28 H :    0.078650    0.000019
  29 H :   -0.005254    0.000093
  30 H :    0.149832   -0.000105
  31 H :    0.110660    0.000025
Sum of atomic charges         :   -2.0000000

LOEWDIN ATOMIC CHARGES AND SPIN POPULATIONS
-------------------------------------------
   0 V :   -0.242733    1.153314
   1 S :    0.088492   -0.016326
   2 S :    0.088544   -0.016331
   3 S :    0.088269   -0.016267
   4 S :    0.088285   -0.016301
   5 O :   -0.350710   -0.124369
   6 C :   -0.553210    0.010004
   7 C :   -0.552674    0.009952
   8 C :   -0.552634    0.009947
   9 C :   -0.553043    0.009974
  10 S :    0.339469   -0.000995
  11 S :    0.339324   -0.001016
  12 S :    0.338646   -0.001057
  13 S :    0.338604   -0.001072
  14 C :   -0.255983    0.000149
  15 C :   -0.296789    0.000172
  16 C :   -0.256103    0.000141
  17 C :   -0.296838    0.000182
  18 C :    0.062247   -0.000026
  19 H :    0.069230   -0.000026
  20 H :    0.051620    0.000003
  21 H :   -0.327586   -0.000014
  22 H :    0.083641    0.000007
  23 H :    0.051620    0.000004
  24 H :    0.069339   -0.000027
  25 C :   -0.185609   -0.000051
  26 H :    0.046543    0.000009
  27 H :    0.065855   -0.000027
  28 H :    0.055777    0.000012
  29 H :    0.045956    0.000052
  30 H :    0.065909   -0.000026
  31 H :    0.046542    0.000008

  Mayer bond orders larger than 0.100000
B(  0-V ,  1-S ) :   0.7875 B(  0-V ,  2-S ) :   0.7911 B(  0-V ,  3-S ) :   0.7895
B(  0-V ,  4-S ) :   0.7885 B(  0-V ,  5-O ) :   2.1083 B(  1-S ,  8-C ) :   1.1387
B(  2-S ,  6-C ) :   1.1374 B(  3-S ,  9-C ) :   1.1379 B(  4-S ,  7-C ) :   1.1385
B(  6-C ,  7-C ) :   1.5121 B(  6-C , 10-S ) :   0.9570 B(  7-C , 11-S ) :   0.9565
B(  8-C ,  9-C ) :   1.5184 B(  8-C , 13-S ) :   0.9512 B(  9-C , 12-S ) :   0.9518
B( 10-S , 16-C ) :   1.0249 B( 11-S , 14-C ) :   1.0247 B( 12-S , 15-C ) :   0.9966
B( 13-S , 17-C ) :   0.9971 B( 14-C , 18-C ) :   0.8279 B( 14-C , 23-H ) :   0.9751
B( 14-C , 24-H ) :   0.9754 B( 15-C , 25-C ) :   0.8861 B( 15-C , 30-H ) :   0.9748
B( 15-C , 31-H ) :   0.9693 B( 16-C , 18-C ) :   0.8282 B( 16-C , 19-H ) :   0.9754
B( 16-C , 20-H ) :   0.9749 B( 17-C , 25-C ) :   0.8860 B( 17-C , 26-H ) :   0.9694
B( 17-C , 27-H ) :   0.9747 B( 18-C , 21-H ) :   0.8515 B( 18-C , 22-H ) :   1.1065
B( 25-C , 28-H ) :   0.9663 B( 25-C , 29-H ) :   0.9264

FINAL SINGLE POINT ENERGY     -4591.473952289072

DIPOLE MOMENT
-------------
                                X             Y             Z
Electronic contribution:    -19.93778     -14.73207      -9.37146
Nuclear contribution   :     22.03620      16.49827      10.47401
                        -----------------------------------------
Total Dipole Moment    :      2.09842       1.76619       1.10256
                        -----------------------------------------
Magnitude (a.u.)       :      2.95608
Magnitude (Debye)      :      7.51377

Rotational constants in cm-1:     0.012775     0.002549     0.002431
Rotational constants in MHz :   382.997685    76.405488    72.883077

                             ****ORCA TERMINATED NORMALLY****
TOTAL RUN TIME: 0 days 0 hours 43 minutes 17 seconds 463 msec
