                         Program Version 5.0.4 -  RELEASE  -
|  1> ! nofrozencore ReducedPop printbasis
|  2> ! B3LYP TZVP
|  3>
|  4> %basis
|  5> newgto V "CP(PPP)" end
|  6> end
|  7>
|  8> %pal
|  9> nprocs 4
| 10> end
| 11>
| 12> % sym SymThresh 1e-2 end
| 13> * xyz -2 2
| 14> V 0.820780114692517 -0.5718582350183027 0.4933182563052887
| 15> S -1.0568406232999088 -0.46177745101920925 2.064102128453498
| 16> S -0.5550614598255237 -2.159734079994659 -0.765019662714615
| 17> S 1.0872168951819579 1.790403749576218 1.0825891678620856
| 18> S 1.612012607053429 0.0752315321123627 -1.7344176871575179
| 19> O 1.992958771484165 -1.390333322760238 1.2046531817812978
| 20> C 0.17582602612965992 -2.1795054660372037 -2.376071584987162
| 21> C 1.0774343614452766 -1.2475897300034895 -2.7801267273812953
| 22> C -0.7736944918278564 1.0379023589994192 2.9621913611825748
| 23> C 0.11868500104836506 1.9754420919547102 2.553965923372657
| 24> S -0.3925500114009377 -3.5139631509422053 -3.447374223469865
| 25> S 1.7976322572606813 -1.2426780854338635 -4.43336836384394
| 26> S 0.38273912506265184 3.519480377882944 3.4424357899994598
| 27> S -1.7883858753148911 1.237864079272241 4.436934052499505
| 28> C 0.37011949924382687 -0.8440491726592567 -5.5015990745217636
| 29> C -1.154273156482566 4.39221315864561 3.1928722797271636
| 30> C -1.353313417659481 -2.6331404776689507 -4.727147519615412
| 31> C -2.888763292497924 2.5697608201246176 3.9883303942415553
| 32> C -0.5594580686937202 -2.0139554337235643 -5.901405228003481
| 33> H -1.9737125355349685 -1.823738054691961 -4.3149609219835945
| 34> H -2.071916888888638 -3.309313096009405 -5.222640082517239
| 35> H -1.258486650768066 -1.6791724597597808 -6.684496764414196
| 36> H 0.06395664403282011 -2.8036624594549777 -6.337855307517199
| 37> H 0.6997570166887034 -0.427451033446739 -6.469547567299373
| 38> H -0.28041208298788045 -0.06740906505508834 -5.073147827916391
| 39> C -2.382899865571567 4.065819938523619 4.142299426983617
| 40> H -3.8846659626809665 2.799416949536715 4.550835395697313
| 41> H -3.349317808171157 2.702707377295439 2.943650083742014
| 42> H -1.9693016594977555 4.1187765159289 5.163177337003734
| 43> H -3.1974351986762506 4.806181355041689 4.06709853068312
| 44> H -1.752656236728978 4.379823934256715 2.211179313004952
| 45> H -1.2769089591467775 5.541554704892988 3.3525008505551614
| 46> *
| 47>
| 48> % eprnmr
| 49> gtensor true
| 50> Nuclei = all H {aiso,adip,aorb,fgrad,rho}
| 51> Nuclei = all V {aiso,adip,aorb,fgrad,rho}
| 52> end
| 53>
| 54>                          ****END OF INPUT****

CARTESIAN COORDINATES (ANGSTROEM)
---------------------------------
  V      0.821660   -0.572511    0.493775
  S     -1.055961   -0.462430    2.064559
  S     -0.554182   -2.160387   -0.764563
  S      1.088096    1.789751    1.083046
  S      1.612892    0.074579   -1.733961
  O      1.993838   -1.390986    1.205110
  C      0.176706   -2.180158   -2.375615
  C      1.078314   -1.248243   -2.779670
  C     -0.772815    1.037249    2.962648
  C      0.119565    1.974789    2.554423
  S     -0.391671   -3.514616   -3.446918
  S      1.798512   -1.243331   -4.432912
  S      0.383619    3.518827    3.442893
  S     -1.787506    1.237211    4.437391
  C      0.370999   -0.844702   -5.501142
  C     -1.153394    4.391560    3.193329
  C     -1.352434   -2.633793   -4.726691
  C     -2.887884    2.569108    3.988787
  C     -0.558579   -2.014608   -5.900949
  H     -1.972833   -1.824391   -4.314504
  H     -2.071037   -3.309966   -5.222183
  H     -1.257607   -1.679825   -6.684040
  H      0.064836   -2.804315   -6.337399
  H      0.700637   -0.428104   -6.469091
  H     -0.279533   -0.068062   -5.072691
  C     -2.382020    4.065167    4.142756
  H     -3.883786    2.798764    4.551292
  H     -3.348438    2.702054    2.944107
  H     -1.968422    4.118124    5.163634
  H     -3.196556    4.805528    4.067555
  H     -1.751777    4.379171    2.211636
  H     -1.276029    5.540902    3.352958

 Total Charge           Charge          ....   -2
 Multiplicity           Mult            ....    2
 Number of Electrons    NEL             ....  233
 Basis Dimension        Dim             ....  517

ORBITAL ENERGIES
----------------
                 SPIN UP ORBITALS
  NO   OCC          E(Eh)            E(eV)
   0   1.0000    -196.643525     -5350.9424
   1   1.0000     -88.688719     -2413.3427
   2   1.0000     -88.688682     -2413.3417
   3   1.0000     -88.681142     -2413.1366
   4   1.0000     -88.681083     -2413.1349
   5   1.0000     -88.616531     -2411.3784
   6   1.0000     -88.616483     -2411.3771
   7   1.0000     -88.614894     -2411.3339
   8   1.0000     -88.614875     -2411.3333
   9   1.0000     -22.019319      -599.1761
  10   1.0000     -18.860470      -513.2195
  11   1.0000     -18.526144      -504.1220
  12   1.0000     -18.520368      -503.9648
  13   1.0000     -18.520336      -503.9640
  14   1.0000     -10.022099      -272.7152
  15   1.0000     -10.022055      -272.7140
  16   1.0000     -10.016063      -272.5509
  17   1.0000     -10.016036      -272.5502
  18   1.0000     -10.002626      -272.1853
  19   1.0000     -10.000449      -272.1260
  20   1.0000      -9.998802      -272.0812
  21   1.0000      -9.998077      -272.0615
  22   1.0000      -9.995274      -271.9852
  23   1.0000      -9.994544      -271.9654
  24   1.0000      -7.742288      -210.6784
  25   1.0000      -7.742238      -210.6770
  26   1.0000      -7.734729      -210.4727
  27   1.0000      -7.734677      -210.4713
  28   1.0000      -7.670864      -208.7348
  29   1.0000      -7.670806      -208.7332
  30   1.0000      -7.669302      -208.6923
  31   1.0000      -7.669284      -208.6918
  32   1.0000      -5.707784      -155.3167
  33   1.0000      -5.707726      -155.3151
  34   1.0000      -5.703557      -155.2017
  35   1.0000      -5.703512      -155.2004
  36   1.0000      -5.700051      -155.1063
  37   1.0000      -5.700003      -155.1050
  38   1.0000      -5.696858      -155.0194
  39   1.0000      -5.696818      -155.0183
  40   1.0000      -5.696074      -154.9981
  41   1.0000      -5.696026      -154.9968
  42   1.0000      -5.689424      -154.8171
  43   1.0000      -5.689362      -154.8154
  44   1.0000      -5.635781      -153.3574
  45   1.0000      -5.635747      -153.3565
  46   1.0000      -5.634146      -153.3129
  47   1.0000      -5.634143      -153.3128
  48   1.0000      -5.629249      -153.1796
  49   1.0000      -5.629194      -153.1781
  50   1.0000      -5.628820      -153.1680
  51   1.0000      -5.628763      -153.1664
  52   1.0000      -5.627741      -153.1386
  53   1.0000      -5.627716      -153.1379
  54   1.0000      -5.627274      -153.1259
  55   1.0000      -5.627258      -153.1255
  56   1.0000      -2.412985       -65.6607
  57   1.0000      -1.454312       -39.5738
  58   1.0000      -1.442778       -39.2600
  59   1.0000      -1.441692       -39.2304
  60   1.0000      -0.643329       -17.5059
  61   1.0000      -0.642257       -17.4767
  62   1.0000      -0.621405       -16.9093
  63   1.0000      -0.594660       -16.1815
  64   1.0000      -0.592234       -16.1155
  65   1.0000      -0.579956       -15.7814
  66   1.0000      -0.577353       -15.7106
  67   1.0000      -0.497460       -13.5366
  68   1.0000      -0.492574       -13.4036
  69   1.0000      -0.488687       -13.2978
  70   1.0000      -0.485493       -13.2109
  71   1.0000      -0.428622       -11.6634
  72   1.0000      -0.425115       -11.5680
  73   1.0000      -0.411259       -11.1909
  74   1.0000      -0.404280       -11.0010
  75   1.0000      -0.376485       -10.2447
  76   1.0000      -0.369882       -10.0650
  77   1.0000      -0.286560        -7.7977
  78   1.0000      -0.286518        -7.7966
  79   1.0000      -0.278250        -7.5716
  80   1.0000      -0.272083        -7.4038
  81   1.0000      -0.260573        -7.0906
  82   1.0000      -0.258539        -7.0352
  83   1.0000      -0.235042        -6.3958
  84   1.0000      -0.211621        -5.7585
  85   1.0000      -0.203685        -5.5425
  86   1.0000      -0.197261        -5.3677
  87   1.0000      -0.187907        -5.1132
  88   1.0000      -0.180469        -4.9108
  89   1.0000      -0.180397        -4.9089
  90   1.0000      -0.172460        -4.6929
  91   1.0000      -0.167943        -4.5700
  92   1.0000      -0.154695        -4.2095
  93   1.0000      -0.154499        -4.2041
  94   1.0000      -0.145260        -3.9527
  95   1.0000      -0.144518        -3.9325
  96   1.0000      -0.131639        -3.5821
  97   1.0000      -0.102548        -2.7905
  98   1.0000      -0.097750        -2.6599
  99   1.0000      -0.096791        -2.6338
 100   1.0000      -0.089562        -2.4371
 101   1.0000      -0.083772        -2.2796
 102   1.0000      -0.083377        -2.2688
 103   1.0000      -0.074268        -2.0209
 104   1.0000      -0.054819        -1.4917
 105   1.0000      -0.043574        -1.1857
 106   1.0000      -0.040446        -1.1006
 107   1.0000      -0.039901        -1.0857
 108   1.0000      -0.034026        -0.9259
 109   1.0000      -0.017041        -0.4637
 110   1.0000      -0.008330        -0.2267
 111   1.0000      -0.006613        -0.1799
 112   1.0000       0.003087         0.0840
 113   1.0000       0.007380         0.2008
 114   1.0000       0.012843         0.3495
 115   1.0000       0.029020         0.7897
 116   1.0000       0.055569         1.5121
 117   0.0000       0.183583         4.9955
 118   0.0000       0.189197         5.1483
 119   0.0000       0.192123         5.2279
 120   0.0000       0.194681         5.2975
 121   0.0000       0.206959         5.6316

                 SPIN DOWN ORBITALS
  NO   OCC          E(Eh)            E(eV)
   0   1.0000    -196.643666     -5350.9462
   1   1.0000     -88.688732     -2413.3431
   2   1.0000     -88.688695     -2413.3421
   3   1.0000     -88.681155     -2413.1369
   4   1.0000     -88.681096     -2413.1353
   5   1.0000     -88.616690     -2411.3827
   6   1.0000     -88.616641     -2411.3814
   7   1.0000     -88.615055     -2411.3382
   8   1.0000     -88.615036     -2411.3377
   9   1.0000     -22.004656      -598.7771
  10   1.0000     -18.864063      -513.3173
  11   1.0000     -18.521011      -503.9823
  12   1.0000     -18.504896      -503.5438
  13   1.0000     -18.504199      -503.5249
  14   1.0000     -10.022095      -272.7151
  15   1.0000     -10.022051      -272.7139
  16   1.0000     -10.016059      -272.5508
  17   1.0000     -10.016032      -272.5501
  18   1.0000     -10.002626      -272.1853
  19   1.0000     -10.000449      -272.1260
  20   1.0000      -9.998544      -272.0742
  21   1.0000      -9.997821      -272.0545
  22   1.0000      -9.995018      -271.9783
  23   1.0000      -9.994289      -271.9584
  24   1.0000      -7.742301      -210.6787
  25   1.0000      -7.742252      -210.6774
  26   1.0000      -7.734743      -210.4731
  27   1.0000      -7.734691      -210.4716
  28   1.0000      -7.671011      -208.7388
  29   1.0000      -7.670953      -208.7372
  30   1.0000      -7.669452      -208.6964
  31   1.0000      -7.669433      -208.6959
  32   1.0000      -5.707800      -155.3171
  33   1.0000      -5.707741      -155.3155
  34   1.0000      -5.703577      -155.2022
  35   1.0000      -5.703532      -155.2010
  36   1.0000      -5.700068      -155.1067
  37   1.0000      -5.700019      -155.1054
  38   1.0000      -5.696874      -155.0198
  39   1.0000      -5.696834      -155.0187
  40   1.0000      -5.696095      -154.9986
  41   1.0000      -5.696047      -154.9973
  42   1.0000      -5.689441      -154.8175
  43   1.0000      -5.689378      -154.8158
  44   1.0000      -5.635951      -153.3620
  45   1.0000      -5.635917      -153.3611
  46   1.0000      -5.634319      -153.3176
  47   1.0000      -5.634316      -153.3175
  48   1.0000      -5.629637      -153.1902
  49   1.0000      -5.629582      -153.1887
  50   1.0000      -5.628954      -153.1716
  51   1.0000      -5.628897      -153.1701
  52   1.0000      -5.628135      -153.1493
  53   1.0000      -5.628110      -153.1487
  54   1.0000      -5.627411      -153.1296
  55   1.0000      -5.627394      -153.1292
  56   1.0000      -2.368813       -64.4587
  57   1.0000      -1.435471       -39.0612
  58   1.0000      -1.381405       -37.5899
  59   1.0000      -1.380730       -37.5716
  60   1.0000      -0.643268       -17.5042
  61   1.0000      -0.642169       -17.4743
  62   1.0000      -0.629107       -17.1189
  63   1.0000      -0.594475       -16.1765
  64   1.0000      -0.592072       -16.1111
  65   1.0000      -0.579946       -15.7811
  66   1.0000      -0.577347       -15.7104
  67   1.0000      -0.497483       -13.5372
  68   1.0000      -0.492610       -13.4046
  69   1.0000      -0.488700       -13.2982
  70   1.0000      -0.485524       -13.2118
  71   1.0000      -0.428846       -11.6695
  72   1.0000      -0.425409       -11.5760
  73   1.0000      -0.411262       -11.1910
  74   1.0000      -0.404382       -11.0038
  75   1.0000      -0.376473       -10.2443
  76   1.0000      -0.369874       -10.0648
  77   1.0000      -0.286519        -7.7966
  78   1.0000      -0.286494        -7.7959
  79   1.0000      -0.278236        -7.5712
  80   1.0000      -0.271886        -7.3984
  81   1.0000      -0.260468        -7.0877
  82   1.0000      -0.258512        -7.0345
  83   1.0000      -0.235001        -6.3947
  84   1.0000      -0.211623        -5.7586
  85   1.0000      -0.203523        -5.5381
  86   1.0000      -0.196998        -5.3606
  87   1.0000      -0.186232        -5.0676
  88   1.0000      -0.180396        -4.9088
  89   1.0000      -0.180230        -4.9043
  90   1.0000      -0.172000        -4.6803
  91   1.0000      -0.167723        -4.5640
  92   1.0000      -0.154224        -4.1967
  93   1.0000      -0.154041        -4.1917
  94   1.0000      -0.145062        -3.9473
  95   1.0000      -0.144338        -3.9276
  96   1.0000      -0.131546        -3.5795
  97   1.0000      -0.101152        -2.7525
  98   1.0000      -0.097293        -2.6475
  99   1.0000      -0.096565        -2.6277
 100   1.0000      -0.089647        -2.4394
 101   1.0000      -0.085300        -2.3211
 102   1.0000      -0.083333        -2.2676
 103   1.0000      -0.075757        -2.0615
 104   1.0000      -0.050820        -1.3829
 105   1.0000      -0.043512        -1.1840
 106   1.0000      -0.039526        -1.0756
 107   1.0000      -0.038926        -1.0592
 108   1.0000      -0.033977        -0.9246
 109   1.0000      -0.016145        -0.4393
 110   1.0000      -0.009466        -0.2576
 111   1.0000      -0.005970        -0.1625
 112   1.0000       0.004022         0.1094
 113   1.0000       0.008280         0.2253
 114   1.0000       0.029260         0.7962
 115   1.0000       0.054761         1.4901
 116   0.0000       0.181435         4.9371
 117   0.0000       0.184639         5.0243
 118   0.0000       0.189263         5.1501
 119   0.0000       0.192845         5.2476
 120   0.0000       0.194866         5.3026

MULLIKEN ATOMIC CHARGES AND SPIN POPULATIONS
--------------------------------------------
   0 V :    0.445551    1.199018
   1 S :   -0.244947   -0.023771
   2 S :   -0.250401   -0.024376
   3 S :   -0.245114   -0.023733
   4 S :   -0.250817   -0.024301
   5 O :   -0.504623   -0.139248
   6 C :   -0.114930    0.008921
   7 C :   -0.113796    0.008941
   8 C :   -0.112655    0.008954
   9 C :   -0.112645    0.008887
  10 S :   -0.029177   -0.000150
  11 S :   -0.029049   -0.000181
  12 S :    0.004680   -0.000127
  13 S :    0.004428   -0.000146
  14 C :   -0.320006    0.000297
  15 C :   -0.281897    0.000344
  16 C :   -0.319138    0.000281
  17 C :   -0.281314    0.000362
  18 C :   -0.124565    0.000121
  19 H :    0.136916   -0.000087
  20 H :    0.095203    0.000011
  21 H :    0.046907    0.000056
  22 H :    0.075421    0.000002
  23 H :    0.095191    0.000012
  24 H :    0.137365   -0.000089
  25 C :   -0.198496    0.000073
  26 H :    0.066397    0.000002
  27 H :    0.116148   -0.000068
  28 H :    0.070189   -0.000037
  29 H :    0.056452    0.000098
  30 H :    0.116358   -0.000064
  31 H :    0.066364   -0.000001
Sum of atomic charges         :   -2.0000000

LOEWDIN ATOMIC CHARGES AND SPIN POPULATIONS
-------------------------------------------
   0 V :   -0.241704    1.153116
   1 S :    0.094391   -0.016122
   2 S :    0.090600   -0.016532
   3 S :    0.094181   -0.016072
   4 S :    0.090256   -0.016494
   5 O :   -0.350032   -0.124649
   6 C :   -0.549326    0.010054
   7 C :   -0.548776    0.010023
   8 C :   -0.542364    0.010098
   9 C :   -0.542716    0.010109
  10 S :    0.351765   -0.001007
  11 S :    0.351595   -0.001024
  12 S :    0.384324   -0.000974
  13 S :    0.384088   -0.000978
  14 C :   -0.307104    0.000162
  15 C :   -0.350301    0.000162
  16 C :   -0.307186    0.000154
  17 C :   -0.350164    0.000171
  18 C :   -0.189910   -0.000045
  19 H :    0.063520   -0.000028
  20 H :    0.048602   -0.000002
  21 H :    0.045596    0.000018
  22 H :    0.049521    0.000012
  23 H :    0.048605   -0.000001
  24 H :    0.063671   -0.000029
  25 C :   -0.209762   -0.000071
  26 H :    0.057250   -0.000009
  27 H :    0.063787   -0.000030
  28 H :    0.042066    0.000010
  29 H :    0.044307    0.000019
  30 H :    0.063922   -0.000029
  31 H :    0.057297   -0.000011

  Mayer bond orders larger than 0.100000
B(  0-V ,  1-S ) :   0.7860 B(  0-V ,  2-S ) :   0.7933 B(  0-V ,  3-S ) :   0.7879
B(  0-V ,  4-S ) :   0.7907 B(  0-V ,  5-O ) :   2.1092 B(  1-S ,  8-C ) :   1.1407
B(  2-S ,  6-C ) :   1.1368 B(  3-S ,  9-C ) :   1.1396 B(  4-S ,  7-C ) :   1.1382
B(  6-C ,  7-C ) :   1.5221 B(  6-C , 10-S ) :   0.9481 B(  7-C , 11-S ) :   0.9482
B(  8-C ,  9-C ) :   1.5120 B(  8-C , 13-S ) :   0.9392 B(  9-C , 12-S ) :   0.9391
B( 10-S , 16-C ) :   1.0058 B( 11-S , 14-C ) :   1.0058 B( 12-S , 15-C ) :   1.0093
B( 13-S , 17-C ) :   1.0095 B( 14-C , 18-C ) :   0.8701 B( 14-C , 23-H ) :   0.9661
B( 14-C , 24-H ) :   0.9739 B( 15-C , 25-C ) :   0.8470 B( 15-C , 30-H ) :   0.9633
B( 15-C , 31-H ) :   0.9536 B( 16-C , 18-C ) :   0.8701 B( 16-C , 19-H ) :   0.9739
B( 16-C , 20-H ) :   0.9660 B( 17-C , 25-C ) :   0.8470 B( 17-C , 26-H ) :   0.9538
B( 17-C , 27-H ) :   0.9632 B( 18-C , 21-H ) :   0.9543 B( 18-C , 22-H ) :   0.9760
B( 25-C , 28-H ) :   0.9768 B( 25-C , 29-H ) :   0.9580

FINAL SINGLE POINT ENERGY     -4592.657387272003

DIPOLE MOMENT
-------------
                                X             Y             Z
Electronic contribution:     20.81839     -14.70800      11.98471
Nuclear contribution   :    -22.79036      15.99861     -13.36264
                        -----------------------------------------
Total Dipole Moment    :     -1.97197       1.29061      -1.37793
                        -----------------------------------------
Magnitude (a.u.)       :      2.73002
Magnitude (Debye)      :      6.93917

Rotational constants in cm-1:     0.012756     0.002547     0.002431
Rotational constants in MHz :   382.406595    76.368102    72.892874

                             ****ORCA TERMINATED NORMALLY****
TOTAL RUN TIME: 0 days 0 hours 43 minutes 21 seconds 651 msec
