                         Program Version 5.0.4 -  RELEASE  -
|  1> ! nofrozencore ReducedPop printbasis
|  2> ! B3LYP TZVP
|  3>
|  4> %basis
|  5> newgto V "CP(PPP)" end
|  6> end
|  7>
|  8> %pal
|  9> nprocs 8
| 10> end
| 11>
| 12> % sym SymThresh 1e-2 end
| 13> * xyz -2 2
| 14> V 0.4618575938097613 0.9968760387521962 -0.19249642066279418
| 15> S 2.2581226451577097 -0.5447141149904325 0.4421899218007352
| 16> S 0.3991570950664673 -0.22812169772129148 -2.31235283551102
| 17> S -0.10198193334900695 0.873786306154048 2.1877823256197275
| 18> S -1.9490691592200307 1.218294406431508 -0.5735514314636683
| 19> O 1.1282803023703145 2.4217925169206476 -0.46587146992631767
| 20> C -1.1763097640499371 0.18620271671017277 -3.0038087580288018
| 21> C -2.1546223560485767 0.783534265366374 -2.2732055638728443
| 22> C 2.32396655985557 -0.41927265429074323 2.204314945523453
| 23> C 1.3402944860040664 0.17250824124362157 2.9324248396192747
| 24> S -1.3926925368518908 -0.27988363873544875 -4.727464952366569
| 25> S -3.781051490588169 1.1763033191969274 -2.962865032367873
| 26> S 1.3854050952610433 0.26966719798114513 4.733207358166737
| 27> S 3.780277347106283 -1.169023890652424 2.9622045712146474
| 28> C -4.507644523050712 -0.5106316193608648 -3.293341496165077
| 29> C 1.2019071833567727 -1.493360192610791 5.246144714086893
| 30> C -2.6125170563953257 -1.6388713153530639 -4.6421441779731945
| 31> C 3.0757218841886576 -2.618748774550688 3.864989014790242
| 32> C -4.129042442954495 -1.1742024020728137 -4.546403055447329
| 33> H -2.464602409176629 -2.3349726243628446 -3.798550316946433
| 34> H -2.7367543521058875 -2.3260840156300286 -5.539247524575786
| 35> H -4.5431511785012 -2.2028864667767833 -4.8243627955015835
| 36> H -4.439659607349606 -0.46102915761182056 -5.327038942051399
| 37> H -5.547099124492355 -0.09469917021260327 -3.1346413018762123
| 38> H -4.225558731478253 -1.0186232150354493 -2.363284138211854
| 39> C 2.4828701916780567 -2.3335421961991414 5.239758505137012
| 40> H 3.9225143447827744 -3.306594176510944 3.953600015755676
| 41> H 2.34102512804157 -3.075688942481418 3.198795558169432
| 42> H 3.243694652228686 -1.8455795390025602 5.858648549551606
| 43> H 2.2402919142906006 -3.292335979934819 5.726394217318679
| 44> H 0.43891806700100205 -1.9456198607838797 4.608429841996232
| 45> H 0.8078118280555696 -1.465181323354169 6.267317990474126
| 46> *
| 47>
| 48> % eprnmr
| 49> gtensor true
| 50> Nuclei = all H {aiso,adip,aorb,fgrad,rho}
| 51> Nuclei = all V {aiso,adip,aorb,fgrad,rho}
| 52> end
| 53>
| 54>                          ****END OF INPUT****

CARTESIAN COORDINATES (ANGSTROEM)
---------------------------------
  V      0.462307    0.997939   -0.192772
  S      2.258572   -0.543651    0.441915
  S      0.399607   -0.227059   -2.312628
  S     -0.101532    0.874849    2.187507
  S     -1.948620    1.219358   -0.573827
  O      1.128730    2.422856   -0.466147
  C     -1.175860    0.187266   -3.004084
  C     -2.154173    0.784597   -2.273481
  C      2.324416   -0.418209    2.204040
  C      1.340744    0.173571    2.932150
  S     -1.392243   -0.278820   -4.727740
  S     -3.780602    1.177366   -2.963140
  S      1.385855    0.270730    4.732932
  S      3.780727   -1.167961    2.961929
  C     -4.507195   -0.509568   -3.293617
  C      1.202357   -1.492297    5.245870
  C     -2.612067   -1.637808   -4.642419
  C      3.076172   -2.617686    3.864714
  C     -4.128593   -1.173139   -4.546678
  H     -2.464153   -2.333909   -3.798825
  H     -2.736305   -2.325021   -5.539523
  H     -4.542702   -2.201823   -4.824638
  H     -4.439210   -0.459966   -5.327314
  H     -5.546649   -0.093636   -3.134916
  H     -4.225109   -1.017560   -2.363559
  C      2.483320   -2.332479    5.239483
  H      3.922964   -3.305531    3.953325
  H      2.341475   -3.074626    3.198520
  H      3.244144   -1.844516    5.858373
  H      2.240742   -3.291273    5.726119
  H      0.439368   -1.944557    4.608155
  H      0.808261   -1.464118    6.267043

 Total Charge           Charge          ....   -2
 Multiplicity           Mult            ....    2
 Number of Electrons    NEL             ....  233
 Basis Dimension        Dim             ....  517

ORBITAL ENERGIES
----------------
                 SPIN UP ORBITALS
  NO   OCC          E(Eh)            E(eV)
   0   1.0000    -196.640877     -5350.8703
   1   1.0000     -88.680081     -2413.1077
   2   1.0000     -88.677537     -2413.0385
   3   1.0000     -88.676923     -2413.0217
   4   1.0000     -88.676767     -2413.0175
   5   1.0000     -88.614143     -2411.3134
   6   1.0000     -88.612541     -2411.2698
   7   1.0000     -88.612457     -2411.2675
   8   1.0000     -88.611998     -2411.2551
   9   1.0000     -22.016686      -599.1045
  10   1.0000     -18.857914      -513.1499
  11   1.0000     -18.523509      -504.0503
  12   1.0000     -18.517738      -503.8933
  13   1.0000     -18.517699      -503.8922
  14   1.0000     -10.025032      -272.7950
  15   1.0000     -10.016735      -272.5692
  16   1.0000     -10.015896      -272.5464
  17   1.0000     -10.015388      -272.5326
  18   1.0000     -10.010176      -272.3907
  19   1.0000     -10.004916      -272.2476
  20   1.0000      -9.993177      -271.9282
  21   1.0000      -9.992273      -271.9036
  22   1.0000      -9.992037      -271.8971
  23   1.0000      -9.991552      -271.8840
  24   1.0000      -7.733638      -210.4430
  25   1.0000      -7.731176      -210.3760
  26   1.0000      -7.730574      -210.3596
  27   1.0000      -7.730414      -210.3552
  28   1.0000      -7.668579      -208.6727
  29   1.0000      -7.666959      -208.6286
  30   1.0000      -7.666908      -208.6272
  31   1.0000      -7.666462      -208.6150
  32   1.0000      -5.698972      -155.0769
  33   1.0000      -5.696411      -155.0072
  34   1.0000      -5.695820      -154.9911
  35   1.0000      -5.695655      -154.9866
  36   1.0000      -5.694986      -154.9685
  37   1.0000      -5.692478      -154.9002
  38   1.0000      -5.691931      -154.8853
  39   1.0000      -5.691768      -154.8809
  40   1.0000      -5.688306      -154.7867
  41   1.0000      -5.685942      -154.7223
  42   1.0000      -5.685320      -154.7054
  43   1.0000      -5.685170      -154.7013
  44   1.0000      -5.633424      -153.2933
  45   1.0000      -5.631799      -153.2491
  46   1.0000      -5.631742      -153.2475
  47   1.0000      -5.631313      -153.2358
  48   1.0000      -5.626973      -153.1177
  49   1.0000      -5.626597      -153.1075
  50   1.0000      -5.625415      -153.0753
  51   1.0000      -5.625342      -153.0733
  52   1.0000      -5.624944      -153.0625
  53   1.0000      -5.624883      -153.0608
  54   1.0000      -5.624878      -153.0607
  55   1.0000      -5.624422      -153.0483
  56   1.0000      -2.410368       -65.5895
  57   1.0000      -1.451723       -39.5034
  58   1.0000      -1.440156       -39.1886
  59   1.0000      -1.439070       -39.1591
  60   1.0000      -0.645274       -17.5588
  61   1.0000      -0.644144       -17.5280
  62   1.0000      -0.618958       -16.8427
  63   1.0000      -0.595010       -16.1911
  64   1.0000      -0.593951       -16.1622
  65   1.0000      -0.576883       -15.6978
  66   1.0000      -0.576227       -15.6799
  67   1.0000      -0.493774       -13.4363
  68   1.0000      -0.490822       -13.3559
  69   1.0000      -0.487536       -13.2665
  70   1.0000      -0.485736       -13.2176
  71   1.0000      -0.424313       -11.5461
  72   1.0000      -0.421205       -11.4616
  73   1.0000      -0.412380       -11.2214
  74   1.0000      -0.406694       -11.0667
  75   1.0000      -0.375973       -10.2307
  76   1.0000      -0.372736       -10.1427
  77   1.0000      -0.293086        -7.9753
  78   1.0000      -0.291220        -7.9245
  79   1.0000      -0.283550        -7.7158
  80   1.0000      -0.277995        -7.5646
  81   1.0000      -0.260585        -7.0909
  82   1.0000      -0.256080        -6.9683
  83   1.0000      -0.241338        -6.5671
  84   1.0000      -0.233202        -6.3457
  85   1.0000      -0.197846        -5.3837
  86   1.0000      -0.194593        -5.2952
  87   1.0000      -0.192477        -5.2376
  88   1.0000      -0.191043        -5.1986
  89   1.0000      -0.184746        -5.0272
  90   1.0000      -0.181750        -4.9457
  91   1.0000      -0.168633        -4.5887
  92   1.0000      -0.151845        -4.1319
  93   1.0000      -0.149837        -4.0773
  94   1.0000      -0.144949        -3.9443
  95   1.0000      -0.143164        -3.8957
  96   1.0000      -0.139777        -3.8035
  97   1.0000      -0.098005        -2.6669
  98   1.0000      -0.096728        -2.6321
  99   1.0000      -0.089693        -2.4407
 100   1.0000      -0.084067        -2.2876
 101   1.0000      -0.081134        -2.2078
 102   1.0000      -0.080926        -2.2021
 103   1.0000      -0.070295        -1.9128
 104   1.0000      -0.050723        -1.3802
 105   1.0000      -0.039215        -1.0671
 106   1.0000      -0.038484        -1.0472
 107   1.0000      -0.036441        -0.9916
 108   1.0000      -0.032564        -0.8861
 109   1.0000      -0.013896        -0.3781
 110   1.0000      -0.005067        -0.1379
 111   1.0000      -0.003971        -0.1080
 112   1.0000       0.005378         0.1464
 113   1.0000       0.009888         0.2691
 114   1.0000       0.015507         0.4220
 115   1.0000       0.032876         0.8946
 116   1.0000       0.059031         1.6063
 117   0.0000       0.181257         4.9323
 118   0.0000       0.191705         5.2166
 119   0.0000       0.196253         5.3403
 120   0.0000       0.197149         5.3647
 121   0.0000       0.210466         5.7271

                 SPIN DOWN ORBITALS
  NO   OCC          E(Eh)            E(eV)
   0   1.0000    -196.641019     -5350.8741
   1   1.0000     -88.680094     -2413.1080
   2   1.0000     -88.677550     -2413.0388
   3   1.0000     -88.676936     -2413.0221
   4   1.0000     -88.676780     -2413.0179
   5   1.0000     -88.614300     -2411.3177
   6   1.0000     -88.612701     -2411.2742
   7   1.0000     -88.612618     -2411.2719
   8   1.0000     -88.612159     -2411.2594
   9   1.0000     -22.002018      -598.7054
  10   1.0000     -18.861489      -513.2472
  11   1.0000     -18.518380      -503.9108
  12   1.0000     -18.502246      -503.4717
  13   1.0000     -18.501567      -503.4532
  14   1.0000     -10.025028      -272.7949
  15   1.0000     -10.016732      -272.5691
  16   1.0000     -10.015892      -272.5463
  17   1.0000     -10.015385      -272.5325
  18   1.0000     -10.010176      -272.3907
  19   1.0000     -10.004916      -272.2476
  20   1.0000      -9.992923      -271.9213
  21   1.0000      -9.992019      -271.8966
  22   1.0000      -9.991783      -271.8902
  23   1.0000      -9.991300      -271.8771
  24   1.0000      -7.733651      -210.4433
  25   1.0000      -7.731190      -210.3764
  26   1.0000      -7.730588      -210.3600
  27   1.0000      -7.730428      -210.3556
  28   1.0000      -7.668725      -208.6766
  29   1.0000      -7.667107      -208.6326
  30   1.0000      -7.667057      -208.6312
  31   1.0000      -7.666612      -208.6191
  32   1.0000      -5.698988      -155.0773
  33   1.0000      -5.696428      -155.0077
  34   1.0000      -5.695837      -154.9916
  35   1.0000      -5.695672      -154.9871
  36   1.0000      -5.695006      -154.9690
  37   1.0000      -5.692498      -154.9007
  38   1.0000      -5.691951      -154.8858
  39   1.0000      -5.691788      -154.8814
  40   1.0000      -5.688321      -154.7871
  41   1.0000      -5.685959      -154.7228
  42   1.0000      -5.685336      -154.7059
  43   1.0000      -5.685187      -154.7018
  44   1.0000      -5.633592      -153.2978
  45   1.0000      -5.631971      -153.2537
  46   1.0000      -5.631913      -153.2522
  47   1.0000      -5.631486      -153.2405
  48   1.0000      -5.627356      -153.1282
  49   1.0000      -5.626731      -153.1111
  50   1.0000      -5.625807      -153.0860
  51   1.0000      -5.625735      -153.0840
  52   1.0000      -5.625272      -153.0714
  53   1.0000      -5.625079      -153.0662
  54   1.0000      -5.625019      -153.0645
  55   1.0000      -5.624557      -153.0520
  56   1.0000      -2.366192       -64.3874
  57   1.0000      -1.432903       -38.9913
  58   1.0000      -1.378745       -37.5176
  59   1.0000      -1.378099       -37.5000
  60   1.0000      -0.645224       -17.5574
  61   1.0000      -0.644094       -17.5267
  62   1.0000      -0.626615       -17.0511
  63   1.0000      -0.594820       -16.1859
  64   1.0000      -0.593749       -16.1567
  65   1.0000      -0.576876       -15.6976
  66   1.0000      -0.576222       -15.6798
  67   1.0000      -0.493790       -13.4367
  68   1.0000      -0.490852       -13.3568
  69   1.0000      -0.487546       -13.2668
  70   1.0000      -0.485765       -13.2183
  71   1.0000      -0.424551       -11.5526
  72   1.0000      -0.421510       -11.4699
  73   1.0000      -0.412391       -11.2217
  74   1.0000      -0.406790       -11.0693
  75   1.0000      -0.375935       -10.2297
  76   1.0000      -0.372756       -10.1432
  77   1.0000      -0.293067        -7.9748
  78   1.0000      -0.291204        -7.9241
  79   1.0000      -0.283517        -7.7149
  80   1.0000      -0.277975        -7.5641
  81   1.0000      -0.260403        -7.0859
  82   1.0000      -0.256043        -6.9673
  83   1.0000      -0.241240        -6.5645
  84   1.0000      -0.233095        -6.3428
  85   1.0000      -0.197706        -5.3799
  86   1.0000      -0.194311        -5.2875
  87   1.0000      -0.192425        -5.2361
  88   1.0000      -0.190981        -5.1969
  89   1.0000      -0.184687        -5.0256
  90   1.0000      -0.179651        -4.8885
  91   1.0000      -0.168514        -4.5855
  92   1.0000      -0.151303        -4.1172
  93   1.0000      -0.149413        -4.0657
  94   1.0000      -0.144711        -3.9378
  95   1.0000      -0.142954        -3.8900
  96   1.0000      -0.139624        -3.7993
  97   1.0000      -0.096677        -2.6307
  98   1.0000      -0.096037        -2.6133
  99   1.0000      -0.089861        -2.4452
 100   1.0000      -0.083976        -2.2851
 101   1.0000      -0.082807        -2.2533
 102   1.0000      -0.080770        -2.1979
 103   1.0000      -0.071533        -1.9465
 104   1.0000      -0.046607        -1.2682
 105   1.0000      -0.039200        -1.0667
 106   1.0000      -0.037915        -1.0317
 107   1.0000      -0.035427        -0.9640
 108   1.0000      -0.032500        -0.8844
 109   1.0000      -0.012984        -0.3533
 110   1.0000      -0.006408        -0.1744
 111   1.0000      -0.002965        -0.0807
 112   1.0000       0.006214         0.1691
 113   1.0000       0.010782         0.2934
 114   1.0000       0.033134         0.9016
 115   1.0000       0.058242         1.5848
 116   0.0000       0.181754         4.9458
 117   0.0000       0.184544         5.0217
 118   0.0000       0.192461         5.2371
 119   0.0000       0.196448         5.3456
 120   0.0000       0.197712         5.3800

MULLIKEN ATOMIC CHARGES AND SPIN POPULATIONS
--------------------------------------------
   0 V :    0.447219    1.199126
   1 S :   -0.252473   -0.024317
   2 S :   -0.253557   -0.024195
   3 S :   -0.254837   -0.024246
   4 S :   -0.252028   -0.023517
   5 O :   -0.506088   -0.138781
   6 C :   -0.101969    0.008639
   7 C :   -0.132326    0.008968
   8 C :   -0.117517    0.008916
   9 C :   -0.114556    0.008893
  10 S :   -0.024551   -0.000056
  11 S :   -0.062634   -0.000282
  12 S :   -0.043484   -0.000186
  13 S :   -0.045709   -0.000236
  14 C :   -0.322261    0.000259
  15 C :   -0.338296    0.000303
  16 C :   -0.326011    0.000345
  17 C :   -0.337528    0.000315
  18 C :   -0.072361    0.000098
  19 H :    0.145716   -0.000090
  20 H :    0.080726   -0.000004
  21 H :    0.031847    0.000063
  22 H :    0.074415    0.000009
  23 H :    0.088918    0.000039
  24 H :    0.152912   -0.000089
  25 C :   -0.084118    0.000136
  26 H :    0.101867    0.000029
  27 H :    0.147303   -0.000109
  28 H :    0.078572    0.000011
  29 H :    0.044596    0.000035
  30 H :    0.146689   -0.000105
  31 H :    0.101525    0.000026
Sum of atomic charges         :   -2.0000000

LOEWDIN ATOMIC CHARGES AND SPIN POPULATIONS
-------------------------------------------
   0 V :   -0.242815    1.153125
   1 S :    0.088936   -0.016503
   2 S :    0.087303   -0.016432
   3 S :    0.087412   -0.016382
   4 S :    0.091275   -0.015902
   5 O :   -0.350571   -0.124220
   6 C :   -0.556782    0.009973
   7 C :   -0.550113    0.009973
   8 C :   -0.552256    0.009948
   9 C :   -0.553156    0.009986
  10 S :    0.352123   -0.000954
  11 S :    0.327553   -0.001096
  12 S :    0.337497   -0.001034
  13 S :    0.336170   -0.001067
  14 C :   -0.294775    0.000166
  15 C :   -0.294241    0.000169
  16 C :   -0.310770    0.000158
  17 C :   -0.293207    0.000178
  18 C :   -0.195128   -0.000041
  19 H :    0.066919   -0.000029
  20 H :    0.052373   -0.000013
  21 H :    0.051081    0.000024
  22 H :    0.055338    0.000011
  23 H :    0.051414    0.000029
  24 H :    0.066441   -0.000021
  25 C :   -0.184907   -0.000039
  26 H :    0.047267    0.000010
  27 H :    0.065933   -0.000028
  28 H :    0.053459    0.000011
  29 H :    0.046856    0.000018
  30 H :    0.065965   -0.000027
  31 H :    0.047407    0.000007

  Mayer bond orders larger than 0.100000
B(  0-V ,  1-S ) :   0.7897 B(  0-V ,  2-S ) :   0.7935 B(  0-V ,  3-S ) :   0.7914
B(  0-V ,  4-S ) :   0.7824 B(  0-V ,  5-O ) :   2.1084 B(  1-S ,  8-C ) :   1.1391
B(  2-S ,  6-C ) :   1.1292 B(  3-S ,  9-C ) :   1.1354 B(  4-S ,  7-C ) :   1.1457
B(  6-C ,  7-C ) :   1.5057 B(  6-C , 10-S ) :   0.9515 B(  7-C , 11-S ) :   0.9594
B(  8-C ,  9-C ) :   1.5180 B(  8-C , 13-S ) :   0.9542 B(  9-C , 12-S ) :   0.9536
B( 10-S , 16-C ) :   1.0058 B( 11-S , 14-C ) :   0.9673 B( 12-S , 15-C ) :   1.0064
B( 13-S , 17-C ) :   1.0042 B( 14-C , 18-C ) :   0.9108 B( 14-C , 23-H ) :   0.9727
B( 14-C , 24-H ) :   0.9796 B( 15-C , 25-C ) :   0.8754 B( 15-C , 30-H ) :   0.9749
B( 15-C , 31-H ) :   0.9696 B( 16-C , 18-C ) :   0.8324 B( 16-C , 19-H ) :   0.9696
B( 16-C , 20-H ) :   0.9614 B( 17-C , 25-C ) :   0.8803 B( 17-C , 26-H ) :   0.9705
B( 17-C , 27-H ) :   0.9753 B( 18-C , 21-H ) :   0.9543 B( 18-C , 22-H ) :   0.9666
B( 25-C , 28-H ) :   0.9740 B( 25-C , 29-H ) :   0.9527

FINAL SINGLE POINT ENERGY     -4592.693116852937

DIPOLE MOMENT
-------------
                                X             Y             Z
Electronic contribution:     11.22064      23.88374      -4.59871
Nuclear contribution   :    -12.41799     -26.52909       5.22868
                        -----------------------------------------
Total Dipole Moment    :     -1.19735      -2.64535       0.62998
                        -----------------------------------------
Magnitude (a.u.)       :      2.97126
Magnitude (Debye)      :      7.55234

Rotational constants in cm-1:     0.012769     0.002548     0.002431
Rotational constants in MHz :   382.802933    76.397666    72.881888

                             ****ORCA TERMINATED NORMALLY****
TOTAL RUN TIME: 0 days 0 hours 27 minutes 28 seconds 126 msec
