                         Program Version 5.0.4 -  RELEASE  -
|  1> ! nofrozencore ReducedPop printbasis
|  2> ! B3LYP TZVP
|  3>
|  4> %basis
|  5> newgto V "CP(PPP)" end
|  6> end
|  7>
|  8> %pal
|  9> nprocs 4
| 10> end
| 11>
| 12> % sym SymThresh 1e-2 end
| 13> * xyz -2 2
| 14> V -0.6518865051293511 -0.20750345141318824 0.8809724384172614
| 15> S 0.974638376483952 1.5005990357739916 1.5457857781238296
| 16> S -1.7084354936279587 1.5640299408497058 -0.4392086651454631
| 17> S 1.2861519058621236 -1.6999219956403018 1.00824305352406
| 18> S -1.416653450171442 -1.642274140961507 -0.9532008643704086
| 19> O -1.581346188982494 -0.5014760044610488 2.1454635923409016
| 20> C -2.7173118207809117 0.6917633952454476 -1.6001034014859215
| 21> C -2.5945050317791685 -0.6447429059962088 -1.815267471584598
| 22> C 2.3538209544924027 0.5677139060303468 2.138669864202336
| 23> C 2.484519492178913 -0.7665733284030574 1.9140744183187064
| 24> S -3.8993548339923056 1.7185245719129838 -2.4964376808590942
| 25> S -3.5971071553118072 -1.5323854046506096 -3.024484949514609
| 26> S 3.9089916413285897 -1.716351405896872 2.4857682156508583
| 27> S 3.5915427672464424 1.5309715472903702 3.029669098993831
| 28> C -3.0076293654685102 -0.8474162710786111 -4.635282254034667
| 29> C 5.304154353658264 -1.0682817406825271 1.4698946212903816
| 30> C -3.2451543277890704 1.6932391746272006 -4.223365232980645
| 31> C 5.034190504008436 1.4715210757952608 1.8734862173559357
| 32> C -3.627122730161758 0.4827826226284686 -5.0702435188784465
| 33> H -2.1607920262407143 1.8044384905488615 -4.156838887257274
| 34> H -3.646404046335851 2.599336640888688 -4.688204635857211
| 35> H -3.3068127271194503 0.672864394635845 -6.107552466663807
| 36> H -4.716713084571187 0.37128017273362063 -5.088636394520426
| 37> H -3.246676308624422 -1.6225265511888023 -5.370202564561812
| 38> H -1.9200495888896587 -0.7684703831350141 -4.574160012685933
| 39> C 5.917395998913305 0.3682825259761728 1.9821795086296845
| 40> H 5.742104647886579 2.2742611675176354 2.1450880361658022
| 41> H 4.583509781728374 1.7546387652175537 0.9090570919266457
| 42> H 6.312784214767512 -0.3654028256528274 2.914755525266751
| 43> H 6.854013437895905 0.17363115962030615 1.3090920269317474
| 44> H 4.966323138497913 -0.8036297958115429 0.45214423914292867
| 45> H 5.953513845492178 -1.9597473734896886 1.428936425408144
| 46> *
| 47>
| 48> % eprnmr
| 49> gtensor true
| 50> Nuclei = all H {aiso,adip,aorb,fgrad,rho}
| 51> Nuclei = all V {aiso,adip,aorb,fgrad,rho}
| 52> end
| 53>
| 54>                          ****END OF INPUT****

CARTESIAN COORDINATES (ANGSTROEM)
---------------------------------
  V     -0.652645   -0.207716    0.881860
  S      0.973880    1.500387    1.546674
  S     -1.709194    1.563817   -0.438321
  S      1.285394   -1.700134    1.009131
  S     -1.417412   -1.642487   -0.952313
  O     -1.582104   -0.501688    2.146352
  C     -2.718070    0.691551   -1.599215
  C     -2.595263   -0.644955   -1.814379
  C      2.353063    0.567501    2.139558
  C      2.483761   -0.766786    1.914962
  S     -3.900113    1.718312   -2.495550
  S     -3.597865   -1.532598   -3.023597
  S      3.908233   -1.716564    2.486656
  S      3.590785    1.530759    3.030557
  C     -3.008388   -0.847629   -4.634394
  C      5.303396   -1.068494    1.470783
  C     -3.245912    1.693027   -4.222477
  C      5.033432    1.471309    1.874374
  C     -3.627881    0.482570   -5.069356
  H     -2.161550    1.804226   -4.155951
  H     -3.647162    2.599124   -4.687317
  H     -3.307571    0.672652   -6.106664
  H     -4.717471    0.371068   -5.087748
  H     -3.247434   -1.622739   -5.369315
  H     -1.920808   -0.768683   -4.573272
  C      5.916638    0.368070    1.983067
  H      5.741346    2.274049    2.145976
  H      4.582752    1.754426    0.909945
  H      6.312026   -0.365615    2.915643
  H      6.853255    0.173419    1.309980
  H      4.965565   -0.803842    0.453032
  H      5.952756   -1.959960    1.429824

 Total Charge           Charge          ....   -2
 Multiplicity           Mult            ....    2
 Number of Electrons    NEL             ....  233
 Basis Dimension        Dim             ....  517

ORBITAL ENERGIES
----------------
                 SPIN UP ORBITALS
  NO   OCC          E(Eh)            E(eV)
   0   1.0000    -196.641130     -5350.8772
   1   1.0000     -88.681554     -2413.1478
   2   1.0000     -88.677146     -2413.0278
   3   1.0000     -88.677062     -2413.0255
   4   1.0000     -88.675956     -2412.9954
   5   1.0000     -88.613515     -2411.2963
   6   1.0000     -88.613288     -2411.2902
   7   1.0000     -88.612783     -2411.2764
   8   1.0000     -88.612736     -2411.2751
   9   1.0000     -22.016937      -599.1113
  10   1.0000     -18.858207      -513.1579
  11   1.0000     -18.523757      -504.0571
  12   1.0000     -18.517989      -503.9001
  13   1.0000     -18.517949      -503.8990
  14   1.0000     -10.025599      -272.8104
  15   1.0000     -10.023240      -272.7462
  16   1.0000     -10.019140      -272.6347
  17   1.0000     -10.016011      -272.5495
  18   1.0000     -10.015836      -272.5447
  19   1.0000     -10.005183      -272.2549
  20   1.0000      -9.993515      -271.9374
  21   1.0000      -9.992805      -271.9180
  22   1.0000      -9.992546      -271.9110
  23   1.0000      -9.991825      -271.8914
  24   1.0000      -7.735039      -210.4811
  25   1.0000      -7.730784      -210.3653
  26   1.0000      -7.730699      -210.3630
  27   1.0000      -7.729756      -210.3374
  28   1.0000      -7.667994      -208.6567
  29   1.0000      -7.667675      -208.6481
  30   1.0000      -7.667217      -208.6356
  31   1.0000      -7.667164      -208.6341
  32   1.0000      -5.700450      -155.1171
  33   1.0000      -5.696395      -155.0068
  34   1.0000      -5.696035      -154.9970
  35   1.0000      -5.695935      -154.9943
  36   1.0000      -5.694906      -154.9663
  37   1.0000      -5.692136      -154.8909
  38   1.0000      -5.692056      -154.8887
  39   1.0000      -5.691055      -154.8615
  40   1.0000      -5.689600      -154.8219
  41   1.0000      -5.685529      -154.7111
  42   1.0000      -5.685459      -154.7092
  43   1.0000      -5.684637      -154.6868
  44   1.0000      -5.632825      -153.2770
  45   1.0000      -5.632519      -153.2686
  46   1.0000      -5.632050      -153.2559
  47   1.0000      -5.632002      -153.2546
  48   1.0000      -5.626405      -153.1023
  49   1.0000      -5.626101      -153.0940
  50   1.0000      -5.625989      -153.0909
  51   1.0000      -5.625686      -153.0827
  52   1.0000      -5.625671      -153.0823
  53   1.0000      -5.625600      -153.0804
  54   1.0000      -5.625202      -153.0695
  55   1.0000      -5.625160      -153.0684
  56   1.0000      -2.410635       -65.5967
  57   1.0000      -1.451991       -39.5107
  58   1.0000      -1.440422       -39.1959
  59   1.0000      -1.439335       -39.1663
  60   1.0000      -0.649041       -17.6613
  61   1.0000      -0.644335       -17.5332
  62   1.0000      -0.619212       -16.8496
  63   1.0000      -0.597193       -16.2504
  64   1.0000      -0.594288       -16.1714
  65   1.0000      -0.578071       -15.7301
  66   1.0000      -0.576349       -15.6833
  67   1.0000      -0.493739       -13.4353
  68   1.0000      -0.491225       -13.3669
  69   1.0000      -0.487909       -13.2767
  70   1.0000      -0.487136       -13.2557
  71   1.0000      -0.426783       -11.6134
  72   1.0000      -0.421873       -11.4797
  73   1.0000      -0.412002       -11.2112
  74   1.0000      -0.404769       -11.0143
  75   1.0000      -0.375658       -10.2222
  76   1.0000      -0.368762       -10.0345
  77   1.0000      -0.293374        -7.9831
  78   1.0000      -0.292289        -7.9536
  79   1.0000      -0.281639        -7.6638
  80   1.0000      -0.278203        -7.5703
  81   1.0000      -0.263944        -7.1823
  82   1.0000      -0.261301        -7.1104
  83   1.0000      -0.255763        -6.9597
  84   1.0000      -0.241314        -6.5665
  85   1.0000      -0.204713        -5.5705
  86   1.0000      -0.194799        -5.3008
  87   1.0000      -0.192681        -5.2431
  88   1.0000      -0.185313        -5.0426
  89   1.0000      -0.184233        -5.0132
  90   1.0000      -0.178399        -4.8545
  91   1.0000      -0.154857        -4.2139
  92   1.0000      -0.151798        -4.1306
  93   1.0000      -0.150030        -4.0825
  94   1.0000      -0.144736        -3.9385
  95   1.0000      -0.143356        -3.9009
  96   1.0000      -0.113408        -3.0860
  97   1.0000      -0.098154        -2.6709
  98   1.0000      -0.097129        -2.6430
  99   1.0000      -0.089876        -2.4456
 100   1.0000      -0.083626        -2.2756
 101   1.0000      -0.082300        -2.2395
 102   1.0000      -0.081169        -2.2087
 103   1.0000      -0.070390        -1.9154
 104   1.0000      -0.051189        -1.3929
 105   1.0000      -0.040157        -1.0927
 106   1.0000      -0.038452        -1.0463
 107   1.0000      -0.036443        -0.9917
 108   1.0000      -0.032202        -0.8763
 109   1.0000      -0.014004        -0.3811
 110   1.0000      -0.005365        -0.1460
 111   1.0000      -0.004103        -0.1117
 112   1.0000       0.005119         0.1393
 113   1.0000       0.009668         0.2631
 114   1.0000       0.015242         0.4147
 115   1.0000       0.032519         0.8849
 116   1.0000       0.058697         1.5972
 117   0.0000       0.181112         4.9283
 118   0.0000       0.189508         5.1568
 119   0.0000       0.196006         5.3336
 120   0.0000       0.196390         5.3440
 121   0.0000       0.208943         5.6856

                 SPIN DOWN ORBITALS
  NO   OCC          E(Eh)            E(eV)
   0   1.0000    -196.641272     -5350.8810
   1   1.0000     -88.681567     -2413.1481
   2   1.0000     -88.677159     -2413.0282
   3   1.0000     -88.677075     -2413.0259
   4   1.0000     -88.675968     -2412.9958
   5   1.0000     -88.613673     -2411.3006
   6   1.0000     -88.613448     -2411.2945
   7   1.0000     -88.612943     -2411.2808
   8   1.0000     -88.612896     -2411.2795
   9   1.0000     -22.002266      -598.7121
  10   1.0000     -18.861795      -513.2555
  11   1.0000     -18.518625      -503.9174
  12   1.0000     -18.502494      -503.4785
  13   1.0000     -18.501817      -503.4600
  14   1.0000     -10.025599      -272.8104
  15   1.0000     -10.023236      -272.7461
  16   1.0000     -10.019136      -272.6345
  17   1.0000     -10.016007      -272.5494
  18   1.0000     -10.015832      -272.5447
  19   1.0000     -10.005183      -272.2549
  20   1.0000      -9.993260      -271.9304
  21   1.0000      -9.992552      -271.9112
  22   1.0000      -9.992291      -271.9041
  23   1.0000      -9.991572      -271.8845
  24   1.0000      -7.735053      -210.4815
  25   1.0000      -7.730798      -210.3657
  26   1.0000      -7.730713      -210.3634
  27   1.0000      -7.729770      -210.3377
  28   1.0000      -7.668140      -208.6607
  29   1.0000      -7.667824      -208.6521
  30   1.0000      -7.667365      -208.6396
  31   1.0000      -7.667313      -208.6382
  32   1.0000      -5.700466      -155.1176
  33   1.0000      -5.696416      -155.0074
  34   1.0000      -5.696051      -154.9974
  35   1.0000      -5.695952      -154.9947
  36   1.0000      -5.694924      -154.9667
  37   1.0000      -5.692156      -154.8914
  38   1.0000      -5.692076      -154.8893
  39   1.0000      -5.691074      -154.8620
  40   1.0000      -5.689617      -154.8223
  41   1.0000      -5.685546      -154.7116
  42   1.0000      -5.685476      -154.7097
  43   1.0000      -5.684653      -154.6873
  44   1.0000      -5.632995      -153.2816
  45   1.0000      -5.632690      -153.2733
  46   1.0000      -5.632222      -153.2606
  47   1.0000      -5.632174      -153.2592
  48   1.0000      -5.626792      -153.1128
  49   1.0000      -5.626494      -153.1047
  50   1.0000      -5.626122      -153.0946
  51   1.0000      -5.626061      -153.0929
  52   1.0000      -5.625993      -153.0910
  53   1.0000      -5.625820      -153.0864
  54   1.0000      -5.625339      -153.0732
  55   1.0000      -5.625295      -153.0720
  56   1.0000      -2.366446       -64.3943
  57   1.0000      -1.433153       -38.9981
  58   1.0000      -1.379001       -37.5245
  59   1.0000      -1.378361       -37.5071
  60   1.0000      -0.648999       -17.6601
  61   1.0000      -0.644285       -17.5319
  62   1.0000      -0.626897       -17.0587
  63   1.0000      -0.596998       -16.2452
  64   1.0000      -0.594090       -16.1660
  65   1.0000      -0.578057       -15.7297
  66   1.0000      -0.576345       -15.6831
  67   1.0000      -0.493745       -13.4355
  68   1.0000      -0.491252       -13.3677
  69   1.0000      -0.487925       -13.2771
  70   1.0000      -0.487164       -13.2564
  71   1.0000      -0.427041       -11.6204
  72   1.0000      -0.422170       -11.4878
  73   1.0000      -0.412021       -11.2117
  74   1.0000      -0.404858       -11.0167
  75   1.0000      -0.375639       -10.2217
  76   1.0000      -0.368758       -10.0344
  77   1.0000      -0.293355        -7.9826
  78   1.0000      -0.292278        -7.9533
  79   1.0000      -0.281627        -7.6635
  80   1.0000      -0.278184        -7.5698
  81   1.0000      -0.263919        -7.1816
  82   1.0000      -0.261078        -7.1043
  83   1.0000      -0.255702        -6.9580
  84   1.0000      -0.241225        -6.5641
  85   1.0000      -0.204620        -5.5680
  86   1.0000      -0.194461        -5.2915
  87   1.0000      -0.192633        -5.2418
  88   1.0000      -0.185158        -5.0384
  89   1.0000      -0.182863        -4.9760
  90   1.0000      -0.177585        -4.8323
  91   1.0000      -0.154634        -4.2078
  92   1.0000      -0.151260        -4.1160
  93   1.0000      -0.149645        -4.0720
  94   1.0000      -0.144522        -3.9327
  95   1.0000      -0.143170        -3.8959
  96   1.0000      -0.113319        -3.0836
  97   1.0000      -0.096773        -2.6333
  98   1.0000      -0.096510        -2.6262
  99   1.0000      -0.090070        -2.4509
 100   1.0000      -0.083629        -2.2757
 101   1.0000      -0.083011        -2.2589
 102   1.0000      -0.081905        -2.2288
 103   1.0000      -0.071645        -1.9496
 104   1.0000      -0.047071        -1.2809
 105   1.0000      -0.039978        -1.0878
 106   1.0000      -0.038019        -1.0345
 107   1.0000      -0.035522        -0.9666
 108   1.0000      -0.032033        -0.8717
 109   1.0000      -0.013090        -0.3562
 110   1.0000      -0.006704        -0.1824
 111   1.0000      -0.003136        -0.0853
 112   1.0000       0.005970         0.1625
 113   1.0000       0.010561         0.2874
 114   1.0000       0.032776         0.8919
 115   1.0000       0.057905         1.5757
 116   0.0000       0.181339         4.9345
 117   0.0000       0.184429         5.0186
 118   0.0000       0.190649         5.1878
 119   0.0000       0.196167         5.3380
 120   0.0000       0.196789         5.3549

MULLIKEN ATOMIC CHARGES AND SPIN POPULATIONS
--------------------------------------------
   0 V :    0.447658    1.199420
   1 S :   -0.254753   -0.023883
   2 S :   -0.253977   -0.024174
   3 S :   -0.248958   -0.024152
   4 S :   -0.253618   -0.024173
   5 O :   -0.505879   -0.139032
   6 C :   -0.117349    0.008870
   7 C :   -0.115074    0.008865
   8 C :   -0.137262    0.008786
   9 C :   -0.093089    0.008975
  10 S :   -0.044237   -0.000162
  11 S :   -0.044497   -0.000206
  12 S :   -0.050746   -0.000123
  13 S :   -0.028697   -0.000241
  14 C :   -0.339983    0.000286
  15 C :   -0.395796    0.000315
  16 C :   -0.337147    0.000270
  17 C :   -0.311869    0.000327
  18 C :   -0.083930    0.000136
  19 H :    0.147075   -0.000101
  20 H :    0.101927    0.000020
  21 H :    0.044666    0.000039
  22 H :    0.078720    0.000018
  23 H :    0.102231    0.000021
  24 H :    0.147006   -0.000103
  25 C :   -0.078631    0.000137
  26 H :    0.100788    0.000032
  27 H :    0.166202   -0.000100
  28 H :    0.058078   -0.000041
  29 H :    0.042221    0.000047
  30 H :    0.143646   -0.000107
  31 H :    0.115275    0.000035
Sum of atomic charges         :   -2.0000000

LOEWDIN ATOMIC CHARGES AND SPIN POPULATIONS
-------------------------------------------
   0 V :   -0.242656    1.153375
   1 S :    0.086826   -0.016113
   2 S :    0.087927   -0.016373
   3 S :    0.092034   -0.016365
   4 S :    0.088255   -0.016395
   5 O :   -0.350415   -0.124460
   6 C :   -0.553315    0.009997
   7 C :   -0.552537    0.009945
   8 C :   -0.556925    0.009872
   9 C :   -0.548460    0.010086
  10 S :    0.337216   -0.001024
  11 S :    0.336705   -0.001050
  12 S :    0.331955   -0.000993
  13 S :    0.350743   -0.001052
  14 C :   -0.293798    0.000164
  15 C :   -0.326008    0.000182
  16 C :   -0.293514    0.000156
  17 C :   -0.303178    0.000171
  18 C :   -0.184848   -0.000036
  19 H :    0.066114   -0.000027
  20 H :    0.047463    0.000004
  21 H :    0.046866    0.000017
  22 H :    0.053474    0.000013
  23 H :    0.047292    0.000005
  24 H :    0.065781   -0.000027
  25 C :   -0.219760   -0.000054
  26 H :    0.058358    0.000011
  27 H :    0.079995   -0.000024
  28 H :    0.084939   -0.000010
  29 H :    0.057423    0.000026
  30 H :    0.058051   -0.000033
  31 H :    0.047996    0.000012

  Mayer bond orders larger than 0.100000
B(  0-V ,  1-S ) :   0.7842 B(  0-V ,  2-S ) :   0.7913 B(  0-V ,  3-S ) :   0.7910
B(  0-V ,  4-S ) :   0.7893 B(  0-V ,  5-O ) :   2.1088 B(  1-S ,  8-C ) :   1.1323
B(  2-S ,  6-C ) :   1.1364 B(  3-S ,  9-C ) :   1.1455 B(  4-S ,  7-C ) :   1.1379
B(  6-C ,  7-C ) :   1.5176 B(  6-C , 10-S ) :   0.9544 B(  7-C , 11-S ) :   0.9534
B(  8-C ,  9-C ) :   1.5121 B(  8-C , 13-S ) :   0.9752 B(  9-C , 12-S ) :   0.9360
B( 10-S , 16-C ) :   1.0041 B( 11-S , 14-C ) :   1.0059 B( 12-S , 15-C ) :   1.0251
B( 13-S , 17-C ) :   0.9616 B( 14-C , 18-C ) :   0.8766 B( 14-C , 23-H ) :   0.9702
B( 14-C , 24-H ) :   0.9751 B( 15-C , 25-C ) :   0.7962 B( 15-C , 30-H ) :   0.9636
B( 15-C , 31-H ) :   0.9647 B( 16-C , 18-C ) :   0.8795 B( 16-C , 19-H ) :   0.9753
B( 16-C , 20-H ) :   0.9700 B( 17-C , 25-C ) :   0.9492 B( 17-C , 26-H ) :   0.9651
B( 17-C , 27-H ) :   0.9633 B( 18-C , 21-H ) :   0.9526 B( 18-C , 22-H ) :   0.9737
B( 25-C , 28-H ) :   0.9455 B( 25-C , 29-H ) :   0.9524

FINAL SINGLE POINT ENERGY     -4592.644864402172

DIPOLE MOMENT
-------------
                                X             Y             Z
Electronic contribution:    -15.88441      -4.28642      21.11284
Nuclear contribution   :     17.47248       4.83394     -23.60821
                        -----------------------------------------
Total Dipole Moment    :      1.58807       0.54752      -2.49536
                        -----------------------------------------
Magnitude (a.u.)       :      3.00809
Magnitude (Debye)      :      7.64595

Rotational constants in cm-1:     0.012766     0.002548     0.002431
Rotational constants in MHz :   382.717776    76.399001    72.877981

                             ****ORCA TERMINATED NORMALLY****
TOTAL RUN TIME: 0 days 0 hours 43 minutes 24 seconds 745 msec
