                         Program Version 5.0.4 -  RELEASE  -
|  1> ! nofrozencore ReducedPop printbasis
|  2> ! B3LYP TZVP
|  3>
|  4> %basis
|  5> newgto V "CP(PPP)" end
|  6> end
|  7>
|  8> %pal
|  9> nprocs 8
| 10> end
| 11>
| 12> % sym SymThresh 1e-2 end
| 13> * xyz -2 2
| 14> V -0.7679569376212421 0.6643568498130165 -0.46027647191109894
| 15> S -1.675224968143886 -0.16459614307410247 1.6526045349049618
| 16> S 0.6889816980572063 2.047038738028542 0.9349497685901216
| 17> S -1.1819499812391348 -1.6146667113975686 -1.2366017398909683
| 18> S 1.161875372528596 0.6182080918697047 -1.9651573210347195
| 19> O -1.8697736813887622 1.6157869769889124 -1.1160455868681822
| 20> C 1.9948042377137325 2.5350596226976014 -0.1658137417997391
| 21> C 2.192615890940282 1.9382499924615244 -1.3743307257545598
| 22> C -2.4943360348289825 -1.675657978557375 1.1923930667156877
| 23> C -2.2890753331782365 -2.280492826371634 -0.012466982813030667
| 24> S 3.0870599464111614 3.8422323926953137 0.4572791032758433
| 25> S 3.5694677523307043 2.395034501803751 -2.463454481487906
| 26> S -3.066430015243039 -3.8677488119926795 -0.4386049847092405
| 27> S -3.5632159898301623 -2.4083581882144736 2.4679945894233546
| 28> C 5.060469199248864 1.8130116567574448 -1.5604036813918334
| 29> C -2.2468660902581257 -5.08349373650638 0.6623188165306543
| 30> C 4.674577971157566 2.97640304724711 0.7835438093275537
| 31> C -2.651421588176148 -3.898846212103767 3.0225290804732676
| 32> C 5.521134716405504 2.7864018267526047 -0.47518712577327904
| 33> H 4.47491831386944 2.0448659066370563 1.3256038585302534
| 34> H 5.215812380268202 3.655643103516965 1.4585981809497102
| 35> H 6.544699983836352 2.498164901140398 -0.16360388535615217
| 36> H 5.604393210805608 3.7750514667504196 -0.9521283874181683
| 37> H 5.841872558072276 1.7703643777990754 -2.333435140005218
| 38> H 4.8873911288608145 0.7944482015126938 -1.1942618636973448
| 39> C -2.85591156940015 -5.074793087191323 2.065663176457026
| 40> H -3.140079942463888 -4.162959250088805 3.9780692998905933
| 41> H -1.6008188445754068 -3.647061581100053 3.23170177892581
| 42> H -3.9495031719595777 -5.152365352959529 1.9170139280092522
| 43> H -2.5415048471472463 -6.007431846011575 2.587823686647528
| 44> H -1.154887798022066 -4.951730667676049 0.6291772288554751
| 45> H -2.4913907956265358 -6.058572690568078 0.20298286069284247
| 46> *
| 47>
| 48> % eprnmr
| 49> gtensor true
| 50> Nuclei = all H {aiso,adip,aorb,fgrad,rho}
| 51> Nuclei = all V {aiso,adip,aorb,fgrad,rho}
| 52> end
| 53>
| 54>                          ****END OF INPUT****

CARTESIAN COORDINATES (ANGSTROEM)
---------------------------------
  V     -0.768715    0.665120   -0.460777
  S     -1.675983   -0.163833    1.652104
  S      0.688224    2.047802    0.934449
  S     -1.182708   -1.613903   -1.237103
  S      1.161117    0.618972   -1.965658
  O     -1.870532    1.616550   -1.116547
  C      1.994046    2.535823   -0.166315
  C      2.191858    1.939013   -1.374832
  C     -2.495094   -1.674894    1.191892
  C     -2.289833   -2.279729   -0.012968
  S      3.086302    3.842996    0.456778
  S      3.568710    2.395798   -2.463955
  S     -3.067188   -3.866985   -0.439106
  S     -3.563974   -2.407595    2.467494
  C      5.059711    1.813775   -1.560905
  C     -2.247624   -5.082730    0.661818
  C      4.673820    2.977167    0.783043
  C     -2.652180   -3.898083    3.022028
  C      5.520377    2.787165   -0.475688
  H      4.474160    2.045629    1.325103
  H      5.215054    3.656407    1.458097
  H      6.543942    2.498928   -0.164105
  H      5.603635    3.775815   -0.952629
  H      5.841115    1.771128   -2.333936
  H      4.886633    0.795212   -1.194763
  C     -2.856670   -5.074030    2.065162
  H     -3.140838   -4.162196    3.977568
  H     -1.601577   -3.646298    3.231201
  H     -3.950261   -5.151602    1.916513
  H     -2.542263   -6.006668    2.587323
  H     -1.155646   -4.950967    0.628676
  H     -2.492149   -6.057809    0.202482

 Total Charge           Charge          ....   -2
 Multiplicity           Mult            ....    2
 Number of Electrons    NEL             ....  233
 Basis Dimension        Dim             ....  517

ORBITAL ENERGIES
----------------
                 SPIN UP ORBITALS
  NO   OCC          E(Eh)            E(eV)
   0   1.0000    -196.639470     -5350.8320
   1   1.0000     -88.675893     -2412.9937
   2   1.0000     -88.675792     -2412.9910
   3   1.0000     -88.675709     -2412.9887
   4   1.0000     -88.675661     -2412.9874
   5   1.0000     -88.612819     -2411.2774
   6   1.0000     -88.612671     -2411.2734
   7   1.0000     -88.612367     -2411.2651
   8   1.0000     -88.612329     -2411.2641
   9   1.0000     -22.015346      -599.0680
  10   1.0000     -18.856628      -513.1149
  11   1.0000     -18.522166      -504.0138
  12   1.0000     -18.516389      -503.8566
  13   1.0000     -18.516360      -503.8558
  14   1.0000     -10.019148      -272.6349
  15   1.0000     -10.019134      -272.6345
  16   1.0000     -10.017511      -272.5903
  17   1.0000     -10.017474      -272.5893
  18   1.0000     -10.005111      -272.2529
  19   1.0000     -10.004290      -272.2306
  20   1.0000      -9.994717      -271.9701
  21   1.0000      -9.994025      -271.9513
  22   1.0000      -9.993734      -271.9433
  23   1.0000      -9.993027      -271.9241
  24   1.0000      -7.729627      -210.3338
  25   1.0000      -7.729554      -210.3319
  26   1.0000      -7.729514      -210.3308
  27   1.0000      -7.729484      -210.3300
  28   1.0000      -7.666974      -208.6290
  29   1.0000      -7.666874      -208.6263
  30   1.0000      -7.666619      -208.6193
  31   1.0000      -7.666604      -208.6189
  32   1.0000      -5.694869      -154.9653
  33   1.0000      -5.694799      -154.9633
  34   1.0000      -5.694751      -154.9621
  35   1.0000      -5.694729      -154.9615
  36   1.0000      -5.690996      -154.8599
  37   1.0000      -5.690920      -154.8578
  38   1.0000      -5.690891      -154.8570
  39   1.0000      -5.690852      -154.8559
  40   1.0000      -5.684352      -154.6791
  41   1.0000      -5.684270      -154.6768
  42   1.0000      -5.684217      -154.6754
  43   1.0000      -5.684187      -154.6746
  44   1.0000      -5.631919      -153.2523
  45   1.0000      -5.631801      -153.2491
  46   1.0000      -5.631519      -153.2414
  47   1.0000      -5.631503      -153.2410
  48   1.0000      -5.625421      -153.0755
  49   1.0000      -5.625314      -153.0726
  50   1.0000      -5.625053      -153.0655
  51   1.0000      -5.625052      -153.0654
  52   1.0000      -5.624907      -153.0615
  53   1.0000      -5.624803      -153.0587
  54   1.0000      -5.624563      -153.0522
  55   1.0000      -5.624556      -153.0520
  56   1.0000      -2.409115       -65.5554
  57   1.0000      -1.450456       -39.4689
  58   1.0000      -1.438917       -39.1549
  59   1.0000      -1.437907       -39.1274
  60   1.0000      -0.643566       -17.5123
  61   1.0000      -0.643506       -17.5107
  62   1.0000      -0.617736       -16.8094
  63   1.0000      -0.590951       -16.0806
  64   1.0000      -0.589658       -16.0454
  65   1.0000      -0.578273       -15.7356
  66   1.0000      -0.577431       -15.7127
  67   1.0000      -0.488941       -13.3048
  68   1.0000      -0.486710       -13.2441
  69   1.0000      -0.486084       -13.2270
  70   1.0000      -0.484621       -13.1872
  71   1.0000      -0.422818       -11.5054
  72   1.0000      -0.419755       -11.4221
  73   1.0000      -0.412178       -11.2159
  74   1.0000      -0.406709       -11.0671
  75   1.0000      -0.375155       -10.2085
  76   1.0000      -0.371774       -10.1165
  77   1.0000      -0.290255        -7.8982
  78   1.0000      -0.288840        -7.8597
  79   1.0000      -0.276944        -7.5360
  80   1.0000      -0.276166        -7.5149
  81   1.0000      -0.263845        -7.1796
  82   1.0000      -0.259999        -7.0749
  83   1.0000      -0.244932        -6.6649
  84   1.0000      -0.240710        -6.5501
  85   1.0000      -0.197032        -5.3615
  86   1.0000      -0.195465        -5.3189
  87   1.0000      -0.190745        -5.1904
  88   1.0000      -0.186437        -5.0732
  89   1.0000      -0.181270        -4.9326
  90   1.0000      -0.178985        -4.8704
  91   1.0000      -0.176175        -4.7940
  92   1.0000      -0.151841        -4.1318
  93   1.0000      -0.148852        -4.0505
  94   1.0000      -0.144714        -3.9379
  95   1.0000      -0.144504        -3.9322
  96   1.0000      -0.143158        -3.8955
  97   1.0000      -0.096883        -2.6363
  98   1.0000      -0.095272        -2.5925
  99   1.0000      -0.088870        -2.4183
 100   1.0000      -0.081418        -2.2155
 101   1.0000      -0.079971        -2.1761
 102   1.0000      -0.079745        -2.1700
 103   1.0000      -0.068090        -1.8528
 104   1.0000      -0.050566        -1.3760
 105   1.0000      -0.038582        -1.0499
 106   1.0000      -0.036893        -1.0039
 107   1.0000      -0.036117        -0.9828
 108   1.0000      -0.030146        -0.8203
 109   1.0000      -0.013047        -0.3550
 110   1.0000      -0.003944        -0.1073
 111   1.0000      -0.003636        -0.0989
 112   1.0000       0.007082         0.1927
 113   1.0000       0.009770         0.2659
 114   1.0000       0.016744         0.4556
 115   1.0000       0.032134         0.8744
 116   1.0000       0.058809         1.6003
 117   0.0000       0.188055         5.1172
 118   0.0000       0.195018         5.3067
 119   0.0000       0.195216         5.3121
 120   0.0000       0.195813         5.3283
 121   0.0000       0.211795         5.7632

                 SPIN DOWN ORBITALS
  NO   OCC          E(Eh)            E(eV)
   0   1.0000    -196.639612     -5350.8359
   1   1.0000     -88.675906     -2412.9941
   2   1.0000     -88.675805     -2412.9913
   3   1.0000     -88.675721     -2412.9890
   4   1.0000     -88.675674     -2412.9877
   5   1.0000     -88.612978     -2411.2817
   6   1.0000     -88.612831     -2411.2777
   7   1.0000     -88.612526     -2411.2694
   8   1.0000     -88.612489     -2411.2684
   9   1.0000     -22.000710      -598.6698
  10   1.0000     -18.860200      -513.2121
  11   1.0000     -18.517054      -503.8747
  12   1.0000     -18.500878      -503.4345
  13   1.0000     -18.500310      -503.4190
  14   1.0000     -10.019144      -272.6348
  15   1.0000     -10.019130      -272.6344
  16   1.0000     -10.017508      -272.5902
  17   1.0000     -10.017470      -272.5892
  18   1.0000     -10.005111      -272.2529
  19   1.0000     -10.004289      -272.2305
  20   1.0000      -9.994447      -271.9627
  21   1.0000      -9.993757      -271.9440
  22   1.0000      -9.993471      -271.9362
  23   1.0000      -9.992767      -271.9170
  24   1.0000      -7.729640      -210.3342
  25   1.0000      -7.729567      -210.3322
  26   1.0000      -7.729527      -210.3311
  27   1.0000      -7.729497      -210.3303
  28   1.0000      -7.667121      -208.6330
  29   1.0000      -7.667022      -208.6303
  30   1.0000      -7.666767      -208.6233
  31   1.0000      -7.666752      -208.6229
  32   1.0000      -5.694885      -154.9657
  33   1.0000      -5.694815      -154.9638
  34   1.0000      -5.694768      -154.9625
  35   1.0000      -5.694746      -154.9619
  36   1.0000      -5.691016      -154.8604
  37   1.0000      -5.690940      -154.8583
  38   1.0000      -5.690910      -154.8575
  39   1.0000      -5.690871      -154.8565
  40   1.0000      -5.684367      -154.6795
  41   1.0000      -5.684285      -154.6772
  42   1.0000      -5.684231      -154.6758
  43   1.0000      -5.684201      -154.6750
  44   1.0000      -5.632092      -153.2570
  45   1.0000      -5.631975      -153.2538
  46   1.0000      -5.631691      -153.2461
  47   1.0000      -5.631676      -153.2457
  48   1.0000      -5.625808      -153.0860
  49   1.0000      -5.625704      -153.0832
  50   1.0000      -5.625441      -153.0760
  51   1.0000      -5.625440      -153.0760
  52   1.0000      -5.625042      -153.0652
  53   1.0000      -5.624938      -153.0623
  54   1.0000      -5.624698      -153.0558
  55   1.0000      -5.624693      -153.0557
  56   1.0000      -2.365024       -64.3556
  57   1.0000      -1.431699       -38.9585
  58   1.0000      -1.377518       -37.4842
  59   1.0000      -1.377140       -37.4739
  60   1.0000      -0.643518       -17.5110
  61   1.0000      -0.643456       -17.5093
  62   1.0000      -0.625390       -17.0177
  63   1.0000      -0.590739       -16.0748
  64   1.0000      -0.589427       -16.0391
  65   1.0000      -0.578265       -15.7354
  66   1.0000      -0.577426       -15.7125
  67   1.0000      -0.488961       -13.3053
  68   1.0000      -0.486738       -13.2448
  69   1.0000      -0.486075       -13.2268
  70   1.0000      -0.484624       -13.1873
  71   1.0000      -0.423054       -11.5119
  72   1.0000      -0.420063       -11.4305
  73   1.0000      -0.412181       -11.2160
  74   1.0000      -0.406801       -11.0696
  75   1.0000      -0.375106       -10.2071
  76   1.0000      -0.371799       -10.1172
  77   1.0000      -0.290234        -7.8977
  78   1.0000      -0.288820        -7.8592
  79   1.0000      -0.276921        -7.5354
  80   1.0000      -0.276144        -7.5143
  81   1.0000      -0.263690        -7.1754
  82   1.0000      -0.259970        -7.0741
  83   1.0000      -0.244764        -6.6604
  84   1.0000      -0.240604        -6.5472
  85   1.0000      -0.196991        -5.3604
  86   1.0000      -0.195438        -5.3181
  87   1.0000      -0.190117        -5.1734
  88   1.0000      -0.186289        -5.0692
  89   1.0000      -0.180195        -4.9034
  90   1.0000      -0.178534        -4.8582
  91   1.0000      -0.175665        -4.7801
  92   1.0000      -0.151517        -4.1230
  93   1.0000      -0.148106        -4.0302
  94   1.0000      -0.144493        -3.9319
  95   1.0000      -0.144171        -3.9231
  96   1.0000      -0.143081        -3.8934
  97   1.0000      -0.095303        -2.5933
  98   1.0000      -0.094777        -2.5790
  99   1.0000      -0.089042        -2.4230
 100   1.0000      -0.081713        -2.2235
 101   1.0000      -0.081547        -2.2190
 102   1.0000      -0.079422        -2.1612
 103   1.0000      -0.069415        -1.8889
 104   1.0000      -0.046269        -1.2590
 105   1.0000      -0.038752        -1.0545
 106   1.0000      -0.035908        -0.9771
 107   1.0000      -0.035050        -0.9538
 108   1.0000      -0.030072        -0.8183
 109   1.0000      -0.012130        -0.3301
 110   1.0000      -0.005248        -0.1428
 111   1.0000      -0.002743        -0.0746
 112   1.0000       0.007864         0.2140
 113   1.0000       0.010656         0.2900
 114   1.0000       0.032365         0.8807
 115   1.0000       0.058008         1.5785
 116   0.0000       0.184973         5.0334
 117   0.0000       0.189177         5.1478
 118   0.0000       0.195092         5.3087
 119   0.0000       0.195897         5.3306
 120   0.0000       0.196015         5.3339

MULLIKEN ATOMIC CHARGES AND SPIN POPULATIONS
--------------------------------------------
   0 V :    0.448850    1.197323
   1 S :   -0.254558   -0.024505
   2 S :   -0.254545   -0.024244
   3 S :   -0.254795   -0.024410
   4 S :   -0.254898   -0.024158
   5 O :   -0.506775   -0.138521
   6 C :   -0.117953    0.009211
   7 C :   -0.116055    0.009248
   8 C :   -0.117180    0.009613
   9 C :   -0.116640    0.009573
  10 S :   -0.044819   -0.000112
  11 S :   -0.044651   -0.000148
  12 S :   -0.044296   -0.000090
  13 S :   -0.044276   -0.000117
  14 C :   -0.309872    0.000335
  15 C :   -0.296653    0.000373
  16 C :   -0.308719    0.000318
  17 C :   -0.296237    0.000392
  18 C :   -0.119807    0.000108
  19 H :    0.143808   -0.000116
  20 H :    0.095178    0.000023
  21 H :    0.038347    0.000040
  22 H :    0.082943    0.000014
  23 H :    0.095109    0.000024
  24 H :    0.144304   -0.000118
  25 C :   -0.136303    0.000083
  26 H :    0.091878    0.000035
  27 H :    0.143024   -0.000128
  28 H :    0.085319    0.000008
  29 H :    0.035094    0.000039
  30 H :    0.143199   -0.000124
  31 H :    0.091976    0.000032
Sum of atomic charges         :   -2.0000000

LOEWDIN ATOMIC CHARGES AND SPIN POPULATIONS
-------------------------------------------
   0 V :   -0.247876    1.150857
   1 S :    0.086029   -0.016459
   2 S :    0.086199   -0.016343
   3 S :    0.085808   -0.016362
   4 S :    0.085892   -0.016303
   5 O :   -0.351032   -0.123970
   6 C :   -0.545156    0.010324
   7 C :   -0.544617    0.010286
   8 C :   -0.541074    0.010575
   9 C :   -0.541430    0.010596
  10 S :    0.335024   -0.000971
  11 S :    0.334852   -0.000993
  12 S :    0.334313   -0.000939
  13 S :    0.334300   -0.000950
  14 C :   -0.293647    0.000172
  15 C :   -0.294512    0.000183
  16 C :   -0.293725    0.000164
  17 C :   -0.294585    0.000193
  18 C :   -0.193504   -0.000019
  19 H :    0.064493   -0.000030
  20 H :    0.049406    0.000003
  21 H :    0.043638    0.000019
  22 H :    0.055501    0.000015
  23 H :    0.049404    0.000004
  24 H :    0.064629   -0.000030
  25 C :   -0.198006   -0.000013
  26 H :    0.050702    0.000009
  27 H :    0.064446   -0.000031
  28 H :    0.056800    0.000014
  29 H :    0.042523    0.000022
  30 H :    0.064509   -0.000031
  31 H :    0.050696    0.000008

  Mayer bond orders larger than 0.100000
B(  0-V ,  1-S ) :   0.7888 B(  0-V ,  2-S ) :   0.7898 B(  0-V ,  3-S ) :   0.7910
B(  0-V ,  4-S ) :   0.7871 B(  0-V ,  5-O ) :   2.1072 B(  1-S ,  8-C ) :   1.1294
B(  2-S ,  6-C ) :   1.1310 B(  3-S ,  9-C ) :   1.1283 B(  4-S ,  7-C ) :   1.1322
B(  6-C ,  7-C ) :   1.5326 B(  6-C , 10-S ) :   0.9488 B(  7-C , 11-S ) :   0.9488
B(  8-C ,  9-C ) :   1.5377 B(  8-C , 13-S ) :   0.9467 B(  9-C , 12-S ) :   0.9466
B( 10-S , 16-C ) :   1.0087 B( 11-S , 14-C ) :   1.0086 B( 12-S , 15-C ) :   1.0120
B( 13-S , 17-C ) :   1.0125 B( 14-C , 18-C ) :   0.8799 B( 14-C , 23-H ) :   0.9718
B( 14-C , 24-H ) :   0.9672 B( 15-C , 25-C ) :   0.8801 B( 15-C , 30-H ) :   0.9630
B( 15-C , 31-H ) :   0.9722 B( 16-C , 18-C ) :   0.8797 B( 16-C , 19-H ) :   0.9671
B( 16-C , 20-H ) :   0.9717 B( 17-C , 25-C ) :   0.8803 B( 17-C , 26-H ) :   0.9721
B( 17-C , 27-H ) :   0.9628 B( 18-C , 21-H ) :   0.9416 B( 18-C , 22-H ) :   0.9830
B( 25-C , 28-H ) :   0.9865 B( 25-C , 29-H ) :   0.9362

FINAL SINGLE POINT ENERGY     -4592.716648295415

DIPOLE MOMENT
-------------
                                X             Y             Z
Electronic contribution:    -18.04032      15.72762     -10.88772
Nuclear contribution   :     20.14371     -17.55434      12.15230
                        -----------------------------------------
Total Dipole Moment    :      2.10339      -1.82672       1.26458
                        -----------------------------------------
Magnitude (a.u.)       :      3.05946
Magnitude (Debye)      :      7.77654

Rotational constants in cm-1:     0.012752     0.002548     0.002428
Rotational constants in MHz :   382.286516    76.389922    72.798359

                             ****ORCA TERMINATED NORMALLY****
TOTAL RUN TIME: 0 days 0 hours 27 minutes 33 seconds 67 msec
