                         Program Version 5.0.4 -  RELEASE  -
|  1> ! nofrozencore ReducedPop printbasis
|  2> ! B3LYP TZVP
|  3>
|  4> %basis
|  5> newgto V "CP(PPP)" end
|  6> end
|  7>
|  8> %pal
|  9> nprocs 8
| 10> end
| 11>
| 12> % sym SymThresh 1e-2 end
| 13> * xyz -2 2
| 14> V -0.7142623778932018 -0.5414307976878602 0.6639370636456716
| 15> S 0.09591959258259863 -2.1346612779236955 -1.0127207282479036
| 16> S 1.5188050322726452 -0.7183639915334685 1.653808983491259
| 17> S -1.9813869550930003 0.36924863702980704 -1.223863124631558
| 18> S -0.5773089474020193 1.7715505007911072 1.4631600458454126
| 19> O -1.7366384664044863 -1.3210818063728358 1.6105709776392843
| 20> C 1.6476721779468444 0.7136671556638896 2.6830459648057685
| 21> C 0.7743992732852942 1.7521782578204248 2.602363105036188
| 22> C -1.036421828415026 -1.9479108168096582 -2.359044733907305
| 23> C -1.905611884112153 -0.9061692339693601 -2.444347120155383
| 24> S 3.044040237360949 0.7009185921088328 3.8253587881187916
| 25> S 0.9231815390842668 3.2308593990944465 3.6254427966820937
| 26> S -3.0282249955677436 -0.6912487680640118 -3.8377009777124025
| 27> S -0.9319363713316933 -3.2405232949240994 -3.6169063649502147
| 28> C 2.4768753612976733 4.010957443085424 3.003206243699751
| 29> C -1.9383613661753907 -0.2738952694726907 -5.199261166867958
| 30> C 4.135797853583468 2.0351310010266865 3.1616670635600608
| 31> C -0.30117799795464295 -2.276482266031675 -5.1310423429171115
| 32> C 3.784511956606698 3.461313185124559 3.5767657403383057
| 33> H 4.144754036283277 1.9339581629826978 2.074299987704547
| 34> H 5.135831858101607 1.784682903695129 3.5294787405639543
| 35> H 4.603612945007662 4.1195486554724825 3.244375083077287
| 36> H 3.751670778754435 3.520680455441342 4.670030530036763
| 37> H 2.381497059032009 5.069793096186243 3.263620012207643
| 38> H 2.4613038531535016 3.9320493545528072 1.9140502052795232
| 39> C -1.182321710871884 -1.6506180060919706 -5.91280994295343
| 40> H 0.16647106852750887 -3.077145528021813 -5.715329122270096
| 41> H 0.4823901392787735 -1.547929793507244 -4.875307013169554
| 42> H -1.9513084508701284 -2.360952690968355 -6.237197941708689
| 43> H -0.5380447559988308 -1.454868521112359 -6.8083020156077465
| 44> H -1.250730129975819 0.4426017720904104 -4.725009759594376
| 45> H -2.5236148844619946 0.26314884741056366 -5.95263136126792
| 46> *
| 47>
| 48> % eprnmr
| 49> gtensor true
| 50> Nuclei = all H {aiso,adip,aorb,fgrad,rho}
| 51> Nuclei = all V {aiso,adip,aorb,fgrad,rho}
| 52> end
| 53>
| 54>                          ****END OF INPUT****

CARTESIAN COORDINATES (ANGSTROEM)
---------------------------------
  V     -0.714982   -0.541976    0.664707
  S      0.095200   -2.135207   -1.011950
  S      1.518086   -0.718909    1.654579
  S     -1.982106    0.368703   -1.223093
  S     -0.578028    1.771005    1.463930
  O     -1.737358   -1.321627    1.611341
  C      1.646953    0.713122    2.683816
  C      0.773680    1.751633    2.603133
  C     -1.037141   -1.948456   -2.358274
  C     -1.906331   -0.906715   -2.443577
  S      3.043321    0.700373    3.826129
  S      0.922462    3.230314    3.626213
  S     -3.028944   -0.691794   -3.836931
  S     -0.932656   -3.241069   -3.616136
  C      2.476156    4.010412    3.003977
  C     -1.939081   -0.274441   -5.198491
  C      4.135079    2.034586    3.162437
  C     -0.301897   -2.277028   -5.130272
  C      3.783793    3.460768    3.577536
  H      4.144035    1.933413    2.075070
  H      5.135113    1.784138    3.530249
  H      4.602894    4.119003    3.245145
  H      3.750951    3.520135    4.670801
  H      2.380778    5.069248    3.264390
  H      2.460585    3.931504    1.914820
  C     -1.183041   -1.651163   -5.912040
  H      0.165752   -3.077691   -5.714559
  H      0.481671   -1.548475   -4.874537
  H     -1.952028   -2.361498   -6.236428
  H     -0.538764   -1.455414   -6.807532
  H     -1.251449    0.442056   -4.724239
  H     -2.524334    0.262603   -5.951861

 Total Charge           Charge          ....   -2
 Multiplicity           Mult            ....    2
 Number of Electrons    NEL             ....  233
 Basis Dimension        Dim             ....  517

ORBITAL ENERGIES
----------------
                 SPIN UP ORBITALS
  NO   OCC          E(Eh)            E(eV)
   0   1.0000    -196.640034     -5350.8474
   1   1.0000     -88.676486     -2413.0099
   2   1.0000     -88.676468     -2413.0094
   3   1.0000     -88.676371     -2413.0067
   4   1.0000     -88.676060     -2412.9983
   5   1.0000     -88.612183     -2411.2601
   6   1.0000     -88.611883     -2411.2519
   7   1.0000     -88.611847     -2411.2509
   8   1.0000     -88.611654     -2411.2457
   9   1.0000     -22.015841      -599.0815
  10   1.0000     -18.857082      -513.1273
  11   1.0000     -18.522668      -504.0274
  12   1.0000     -18.516890      -503.8702
  13   1.0000     -18.516854      -503.8692
  14   1.0000     -10.024260      -272.7740
  15   1.0000     -10.015425      -272.5336
  16   1.0000     -10.015197      -272.5274
  17   1.0000     -10.005472      -272.2627
  18   1.0000     -10.004600      -272.2390
  19   1.0000     -10.003294      -272.2035
  20   1.0000      -9.992493      -271.9096
  21   1.0000      -9.991725      -271.8887
  22   1.0000      -9.991003      -271.8690
  23   1.0000      -9.990329      -271.8507
  24   1.0000      -7.730907      -210.3687
  25   1.0000      -7.730125      -210.3474
  26   1.0000      -7.730024      -210.3446
  27   1.0000      -7.729147      -210.3208
  28   1.0000      -7.666622      -208.6194
  29   1.0000      -7.666311      -208.6109
  30   1.0000      -7.666283      -208.6102
  31   1.0000      -7.666068      -208.6043
  32   1.0000      -5.696046      -154.9973
  33   1.0000      -5.695372      -154.9789
  34   1.0000      -5.695272      -154.9762
  35   1.0000      -5.694354      -154.9513
  36   1.0000      -5.692078      -154.8893
  37   1.0000      -5.691477      -154.8730
  38   1.0000      -5.691374      -154.8702
  39   1.0000      -5.690667      -154.8509
  40   1.0000      -5.685772      -154.7177
  41   1.0000      -5.684876      -154.6933
  42   1.0000      -5.684770      -154.6905
  43   1.0000      -5.683897      -154.6667
  44   1.0000      -5.631464      -153.2399
  45   1.0000      -5.631164      -153.2318
  46   1.0000      -5.631130      -153.2308
  47   1.0000      -5.630930      -153.2254
  48   1.0000      -5.625067      -153.0659
  49   1.0000      -5.624745      -153.0571
  50   1.0000      -5.624720      -153.0564
  51   1.0000      -5.624607      -153.0533
  52   1.0000      -5.624498      -153.0504
  53   1.0000      -5.624294      -153.0448
  54   1.0000      -5.624268      -153.0441
  55   1.0000      -5.624046      -153.0381
  56   1.0000      -2.409524       -65.5665
  57   1.0000      -1.450886       -39.4806
  58   1.0000      -1.439301       -39.1654
  59   1.0000      -1.438228       -39.1362
  60   1.0000      -0.658164       -17.9096
  61   1.0000      -0.643697       -17.5159
  62   1.0000      -0.618187       -16.8217
  63   1.0000      -0.607282       -16.5250
  64   1.0000      -0.593576       -16.1520
  65   1.0000      -0.575697       -15.6655
  66   1.0000      -0.572941       -15.5905
  67   1.0000      -0.501522       -13.6471
  68   1.0000      -0.490514       -13.3476
  69   1.0000      -0.486947       -13.2505
  70   1.0000      -0.472612       -12.8604
  71   1.0000      -0.422597       -11.4995
  72   1.0000      -0.419959       -11.4277
  73   1.0000      -0.410647       -11.1743
  74   1.0000      -0.402814       -10.9611
  75   1.0000      -0.375915       -10.2292
  76   1.0000      -0.372895       -10.1470
  77   1.0000      -0.300956        -8.1894
  78   1.0000      -0.292762        -7.9665
  79   1.0000      -0.285909        -7.7800
  80   1.0000      -0.277615        -7.5543
  81   1.0000      -0.259926        -7.0729
  82   1.0000      -0.255616        -6.9557
  83   1.0000      -0.242860        -6.6086
  84   1.0000      -0.239604        -6.5200
  85   1.0000      -0.211420        -5.7530
  86   1.0000      -0.194926        -5.3042
  87   1.0000      -0.192214        -5.2304
  88   1.0000      -0.191228        -5.2036
  89   1.0000      -0.184598        -5.0232
  90   1.0000      -0.181168        -4.9298
  91   1.0000      -0.161951        -4.4069
  92   1.0000      -0.149928        -4.0797
  93   1.0000      -0.148385        -4.0378
  94   1.0000      -0.143513        -3.9052
  95   1.0000      -0.142314        -3.8726
  96   1.0000      -0.137388        -3.7385
  97   1.0000      -0.097415        -2.6508
  98   1.0000      -0.095934        -2.6105
  99   1.0000      -0.088824        -2.4170
 100   1.0000      -0.083296        -2.2666
 101   1.0000      -0.080146        -2.1809
 102   1.0000      -0.079848        -2.1728
 103   1.0000      -0.069062        -1.8793
 104   1.0000      -0.050059        -1.3622
 105   1.0000      -0.038364        -1.0439
 106   1.0000      -0.037871        -1.0305
 107   1.0000      -0.035553        -0.9674
 108   1.0000      -0.031665        -0.8616
 109   1.0000      -0.012951        -0.3524
 110   1.0000      -0.004132        -0.1124
 111   1.0000      -0.003077        -0.0837
 112   1.0000       0.006337         0.1724
 113   1.0000       0.010751         0.2926
 114   1.0000       0.016359         0.4452
 115   1.0000       0.033711         0.9173
 116   1.0000       0.059880         1.6294
 117   0.0000       0.187794         5.1101
 118   0.0000       0.193365         5.2617
 119   0.0000       0.195384         5.3167
 120   0.0000       0.196564         5.3488
 121   0.0000       0.211554         5.7567

                 SPIN DOWN ORBITALS
  NO   OCC          E(Eh)            E(eV)
   0   1.0000    -196.640175     -5350.8512
   1   1.0000     -88.676499     -2413.0102
   2   1.0000     -88.676481     -2413.0097
   3   1.0000     -88.676384     -2413.0071
   4   1.0000     -88.676073     -2412.9986
   5   1.0000     -88.612342     -2411.2644
   6   1.0000     -88.612043     -2411.2563
   7   1.0000     -88.612007     -2411.2553
   8   1.0000     -88.611814     -2411.2500
   9   1.0000     -22.001173      -598.6823
  10   1.0000     -18.860656      -513.2245
  11   1.0000     -18.517539      -503.8878
  12   1.0000     -18.501396      -503.4486
  13   1.0000     -18.500721      -503.4302
  14   1.0000     -10.024257      -272.7739
  15   1.0000     -10.015421      -272.5335
  16   1.0000     -10.015194      -272.5273
  17   1.0000     -10.005468      -272.2626
  18   1.0000     -10.004599      -272.2390
  19   1.0000     -10.003294      -272.2035
  20   1.0000      -9.992238      -271.9026
  21   1.0000      -9.991470      -271.8817
  22   1.0000      -9.990751      -271.8622
  23   1.0000      -9.990077      -271.8438
  24   1.0000      -7.730920      -210.3690
  25   1.0000      -7.730139      -210.3478
  26   1.0000      -7.730038      -210.3450
  27   1.0000      -7.729161      -210.3212
  28   1.0000      -7.666769      -208.6234
  29   1.0000      -7.666459      -208.6150
  30   1.0000      -7.666432      -208.6142
  31   1.0000      -7.666217      -208.6084
  32   1.0000      -5.696063      -154.9978
  33   1.0000      -5.695389      -154.9794
  34   1.0000      -5.695289      -154.9767
  35   1.0000      -5.694371      -154.9517
  36   1.0000      -5.692097      -154.8898
  37   1.0000      -5.691497      -154.8735
  38   1.0000      -5.691395      -154.8707
  39   1.0000      -5.690688      -154.8515
  40   1.0000      -5.685788      -154.7181
  41   1.0000      -5.684893      -154.6938
  42   1.0000      -5.684787      -154.6909
  43   1.0000      -5.683914      -154.6672
  44   1.0000      -5.631634      -153.2446
  45   1.0000      -5.631335      -153.2364
  46   1.0000      -5.631302      -153.2355
  47   1.0000      -5.631101      -153.2301
  48   1.0000      -5.625456      -153.0764
  49   1.0000      -5.625136      -153.0677
  50   1.0000      -5.625110      -153.0670
  51   1.0000      -5.624892      -153.0611
  52   1.0000      -5.624741      -153.0570
  53   1.0000      -5.624429      -153.0485
  54   1.0000      -5.624405      -153.0478
  55   1.0000      -5.624180      -153.0417
  56   1.0000      -2.365343       -64.3643
  57   1.0000      -1.432065       -38.9685
  58   1.0000      -1.377884       -37.4941
  59   1.0000      -1.377253       -37.4770
  60   1.0000      -0.658144       -17.9090
  61   1.0000      -0.643648       -17.5146
  62   1.0000      -0.625822       -17.0295
  63   1.0000      -0.607135       -16.5210
  64   1.0000      -0.593379       -16.1467
  65   1.0000      -0.575692       -15.6654
  66   1.0000      -0.572879       -15.5888
  67   1.0000      -0.501513       -13.6469
  68   1.0000      -0.490544       -13.3484
  69   1.0000      -0.486958       -13.2508
  70   1.0000      -0.472688       -12.8625
  71   1.0000      -0.422828       -11.5057
  72   1.0000      -0.420237       -11.4352
  73   1.0000      -0.410687       -11.1754
  74   1.0000      -0.402894       -10.9633
  75   1.0000      -0.375873       -10.2280
  76   1.0000      -0.372920       -10.1477
  77   1.0000      -0.300940        -8.1890
  78   1.0000      -0.292745        -7.9660
  79   1.0000      -0.285889        -7.7794
  80   1.0000      -0.277597        -7.5538
  81   1.0000      -0.259742        -7.0679
  82   1.0000      -0.255585        -6.9548
  83   1.0000      -0.242747        -6.6055
  84   1.0000      -0.239528        -6.5179
  85   1.0000      -0.211386        -5.7521
  86   1.0000      -0.194479        -5.2920
  87   1.0000      -0.192167        -5.2291
  88   1.0000      -0.191128        -5.2009
  89   1.0000      -0.184545        -5.0217
  90   1.0000      -0.179098        -4.8735
  91   1.0000      -0.161838        -4.4038
  92   1.0000      -0.149274        -4.0619
  93   1.0000      -0.148084        -4.0296
  94   1.0000      -0.143200        -3.8967
  95   1.0000      -0.142199        -3.8694
  96   1.0000      -0.137226        -3.7341
  97   1.0000      -0.096249        -2.6191
  98   1.0000      -0.095092        -2.5876
  99   1.0000      -0.088978        -2.4212
 100   1.0000      -0.083145        -2.2625
 101   1.0000      -0.081997        -2.2312
 102   1.0000      -0.079640        -2.1671
 103   1.0000      -0.070254        -1.9117
 104   1.0000      -0.045918        -1.2495
 105   1.0000      -0.038431        -1.0458
 106   1.0000      -0.037230        -1.0131
 107   1.0000      -0.034556        -0.9403
 108   1.0000      -0.031574        -0.8592
 109   1.0000      -0.012047        -0.3278
 110   1.0000      -0.005477        -0.1490
 111   1.0000      -0.002062        -0.0561
 112   1.0000       0.007173         0.1952
 113   1.0000       0.011647         0.3169
 114   1.0000       0.033969         0.9243
 115   1.0000       0.059089         1.6079
 116   0.0000       0.185404         5.0451
 117   0.0000       0.188982         5.1424
 118   0.0000       0.193569         5.2673
 119   0.0000       0.195864         5.3297
 120   0.0000       0.196758         5.3541

MULLIKEN ATOMIC CHARGES AND SPIN POPULATIONS
--------------------------------------------
   0 V :    0.447877    1.199234
   1 S :   -0.252010   -0.024355
   2 S :   -0.253659   -0.024112
   3 S :   -0.256816   -0.023998
   4 S :   -0.254443   -0.024003
   5 O :   -0.506635   -0.138718
   6 C :   -0.116802    0.008812
   7 C :   -0.115549    0.008878
   8 C :   -0.089848    0.008979
   9 C :   -0.142995    0.008824
  10 S :   -0.045013   -0.000169
  11 S :   -0.044658   -0.000195
  12 S :   -0.031403   -0.000093
  13 S :   -0.061940   -0.000316
  14 C :   -0.339349    0.000290
  15 C :   -0.323196    0.000346
  16 C :   -0.337956    0.000270
  17 C :   -0.357061    0.000235
  18 C :   -0.083283    0.000135
  19 H :    0.146633   -0.000101
  20 H :    0.101712    0.000021
  21 H :    0.044395    0.000038
  22 H :    0.078476    0.000017
  23 H :    0.101716    0.000022
  24 H :    0.147453   -0.000104
  25 C :   -0.056289    0.000135
  26 H :    0.097267    0.000057
  27 H :    0.134252   -0.000071
  28 H :    0.074147    0.000004
  29 H :    0.037518    0.000057
  30 H :    0.153005   -0.000135
  31 H :    0.104455    0.000015
Sum of atomic charges         :   -2.0000000

LOEWDIN ATOMIC CHARGES AND SPIN POPULATIONS
-------------------------------------------
   0 V :   -0.242869    1.153190
   1 S :    0.088505   -0.016502
   2 S :    0.088112   -0.016332
   3 S :    0.087003   -0.016199
   4 S :    0.087578   -0.016263
   5 O :   -0.350928   -0.124166
   6 C :   -0.553197    0.009975
   7 C :   -0.552827    0.009949
   8 C :   -0.546092    0.010038
   9 C :   -0.559835    0.009895
  10 S :    0.336609   -0.001029
  11 S :    0.336709   -0.001042
  12 S :    0.356026   -0.000972
  13 S :    0.314275   -0.001119
  14 C :   -0.293773    0.000165
  15 C :   -0.308229    0.000147
  16 C :   -0.293673    0.000156
  17 C :   -0.286135    0.000193
  18 C :   -0.184855   -0.000036
  19 H :    0.065858   -0.000027
  20 H :    0.047285    0.000004
  21 H :    0.046741    0.000017
  22 H :    0.053382    0.000012
  23 H :    0.047240    0.000005
  24 H :    0.065986   -0.000027
  25 C :   -0.182823   -0.000042
  26 H :    0.048261    0.000030
  27 H :    0.067897   -0.000013
  28 H :    0.050825    0.000009
  29 H :    0.053178    0.000028
  30 H :    0.068020   -0.000040
  31 H :    0.045745   -0.000004

  Mayer bond orders larger than 0.100000
B(  0-V ,  1-S ) :   0.7902 B(  0-V ,  2-S ) :   0.7907 B(  0-V ,  3-S ) :   0.7878
B(  0-V ,  4-S ) :   0.7878 B(  0-V ,  5-O ) :   2.1080 B(  1-S ,  8-C ) :   1.1415
B(  2-S ,  6-C ) :   1.1370 B(  3-S ,  9-C ) :   1.1306 B(  4-S ,  7-C ) :   1.1379
B(  6-C ,  7-C ) :   1.5175 B(  6-C , 10-S ) :   0.9535 B(  7-C , 11-S ) :   0.9535
B(  8-C ,  9-C ) :   1.5200 B(  8-C , 13-S ) :   0.9436 B(  9-C , 12-S ) :   0.9624
B( 10-S , 16-C ) :   1.0051 B( 11-S , 14-C ) :   1.0053 B( 12-S , 15-C ) :   0.9968
B( 13-S , 17-C ) :   1.0037 B( 14-C , 18-C ) :   0.8776 B( 14-C , 23-H ) :   0.9699
B( 14-C , 24-H ) :   0.9753 B( 15-C , 25-C ) :   0.8307 B( 15-C , 30-H ) :   0.9735
B( 15-C , 31-H ) :   0.9567 B( 16-C , 18-C ) :   0.8780 B( 16-C , 19-H ) :   0.9753
B( 16-C , 20-H ) :   0.9702 B( 17-C , 25-C ) :   0.8752 B( 17-C , 26-H ) :   0.9848
B( 17-C , 27-H ) :   0.9721 B( 18-C , 21-H ) :   0.9526 B( 18-C , 22-H ) :   0.9738
B( 25-C , 28-H ) :   0.9736 B( 25-C , 29-H ) :   0.9479

FINAL SINGLE POINT ENERGY     -4592.675061444206

DIPOLE MOMENT
-------------
                                X             Y             Z
Electronic contribution:    -17.16148     -12.85338      15.90189
Nuclear contribution   :     19.12050      14.34592     -17.71872
                        -----------------------------------------
Total Dipole Moment    :      1.95902       1.49254      -1.81684
                        -----------------------------------------
Magnitude (a.u.)       :      3.06044
Magnitude (Debye)      :      7.77903

Rotational constants in cm-1:     0.012766     0.002548     0.002431
Rotational constants in MHz :   382.726843    76.397704    72.877922

                             ****ORCA TERMINATED NORMALLY****
TOTAL RUN TIME: 0 days 0 hours 27 minutes 23 seconds 453 msec
