                         Program Version 5.0.4 -  RELEASE  -
|  1> ! nofrozencore ReducedPop printbasis
|  2> ! B3LYP TZVP
|  3>
|  4> %basis
|  5> newgto V "CP(PPP)" end
|  6> end
|  7>
|  8> %pal
|  9> nprocs 4
| 10> end
| 11>
| 12> % sym SymThresh 1e-2 end
| 13> * xyz -2 2
| 14> V 0.3675612112650377 -0.8648712114103545 0.6010475205247617
| 15> S 0.43993697002553894 -1.5161196895453701 -1.7604073712628556
| 16> S 2.2876071147489787 0.5641693010817151 0.082104365540578
| 17> S -2.050751617458432 -1.1219675583376332 0.30924299374846637
| 18> S -0.19053450889320403 0.9349923669850266 2.1683543222147907
| 19> O 0.8931820714725275 -2.105822345935022 1.4563130407181577
| 20> C 2.334124826124103 1.722488203863953 1.4163886116552404
| 21> C 1.3014692191261825 1.8799897724455719 2.2866483506527917
| 22> C -1.1658874790559193 -2.2059816208655776 -2.064458745623151
| 23> C -2.2064323312035206 -2.0418770281891985 -1.2006324406053852
| 24> S 3.8445735142043977 2.7017643263209075 1.5160575616657128
| 25> S 1.3290531227010494 3.0842079667105793 3.625248922237421
| 26> S -3.837076925635866 -2.6965252451496142 -1.5191331697868438
| 27> S -1.3247060683272278 -3.094673626281606 -3.6060834337225303
| 28> C 1.2997617792365224 4.711917750060092 2.7299761710116712
| 29> C -4.471622674515314 -1.6743313845969907 -3.0242519809976214
| 30> C 3.269833343786809 4.413633006827494 1.0805237517967217
| 31> C -2.4883610040949953 -1.9895250673298985 -4.67234969208452
| 32> C 2.646048950061659 5.1945495247884175 2.2224462894054398
| 33> H 2.560709413674266 4.316249447612266 0.2553354431190515
| 34> H 4.149902507913515 4.9484984151555444 0.709384101754599
| 35> H 2.471462060125967 6.211861237236334 1.8299447457296585
| 36> H 3.355534406578793 5.294546504978267 3.051871612299301
| 37> H 0.8911863643388369 5.443223429087406 3.4346698651970127
| 38> H 0.5954142640928505 4.611141540399343 1.9011068965640372
| 39> C -3.865596083498567 -2.213584422655812 -4.239191919262453
| 40> H -2.400363617691988 -2.108557177695745 -5.772682941621719
| 41> H -2.2698176253843636 -0.940360586469011 -4.415418093936989
| 42> H -4.359618834790521 -3.1659664343763727 -4.6515522816568335
| 43> H -4.273211784226642 -1.3491790173038567 -4.894939657744472
| 44> H -4.062500941618678 -0.6559756178957102 -2.923468086312504
| 45> H -5.57396218666648 -1.6019095933186067 -3.1359241963215627
| 46> *
| 47>
| 48> % eprnmr
| 49> gtensor true
| 50> Nuclei = all H {aiso,adip,aorb,fgrad,rho}
| 51> Nuclei = all V {aiso,adip,aorb,fgrad,rho}
| 52> end
| 53>
| 54>                          ****END OF INPUT****

CARTESIAN COORDINATES (ANGSTROEM)
---------------------------------
  V      0.368002   -0.865739    0.601727
  S      0.440377   -1.516988   -1.759728
  S      2.288047    0.563301    0.082783
  S     -2.050311   -1.122836    0.309922
  S     -0.190094    0.934124    2.169033
  O      0.893622   -2.106691    1.456992
  C      2.334565    1.721620    1.417068
  C      1.301910    1.879122    2.287327
  C     -1.165447   -2.206850   -2.063780
  C     -2.205992   -2.042745   -1.199953
  S      3.845014    2.700896    1.516737
  S      1.329493    3.083340    3.625928
  S     -3.836637   -2.697394   -1.518454
  S     -1.324266   -3.095542   -3.605404
  C      1.300202    4.711049    2.730655
  C     -4.471182   -1.675200   -3.023573
  C      3.270274    4.412765    1.081203
  C     -2.487921   -1.990393   -4.671671
  C      2.646489    5.193681    2.223125
  H      2.561150    4.315381    0.256014
  H      4.150343    4.947630    0.710063
  H      2.471902    6.210993    1.830624
  H      3.355975    5.293678    3.052551
  H      0.891627    5.442355    3.435349
  H      0.595855    4.610273    1.901786
  C     -3.865156   -2.214453   -4.238513
  H     -2.399923   -2.109425   -5.772004
  H     -2.269377   -0.941229   -4.414739
  H     -4.359179   -3.166835   -4.650873
  H     -4.272771   -1.350047   -4.894261
  H     -4.062061   -0.656844   -2.922789
  H     -5.573522   -1.602778   -3.135245

 Total Charge           Charge          ....   -2
 Multiplicity           Mult            ....    2
 Number of Electrons    NEL             ....  233
 Basis Dimension        Dim             ....  517

ORBITAL ENERGIES
----------------
                 SPIN UP ORBITALS
  NO   OCC          E(Eh)            E(eV)
   0   1.0000    -196.640232     -5350.8527
   1   1.0000     -88.676460     -2413.0092
   2   1.0000     -88.676247     -2413.0033
   3   1.0000     -88.674101     -2412.9450
   4   1.0000     -88.674090     -2412.9447
   5   1.0000     -88.613152     -2411.2865
   6   1.0000     -88.613133     -2411.2859
   7   1.0000     -88.612448     -2411.2673
   8   1.0000     -88.612180     -2411.2600
   9   1.0000     -22.016029      -599.0866
  10   1.0000     -18.857509      -513.1389
  11   1.0000     -18.522879      -504.0332
  12   1.0000     -18.517067      -503.8750
  13   1.0000     -18.517032      -503.8741
  14   1.0000     -10.023576      -272.7554
  15   1.0000     -10.023546      -272.7546
  16   1.0000     -10.015955      -272.5480
  17   1.0000     -10.015928      -272.5472
  18   1.0000     -10.009653      -272.3765
  19   1.0000     -10.003826      -272.2180
  20   1.0000      -9.993916      -271.9483
  21   1.0000      -9.993212      -271.9291
  22   1.0000      -9.992324      -271.9050
  23   1.0000      -9.991615      -271.8857
  24   1.0000      -7.730014      -210.3444
  25   1.0000      -7.729791      -210.3383
  26   1.0000      -7.727251      -210.2692
  27   1.0000      -7.727233      -210.2687
  28   1.0000      -7.667420      -208.6411
  29   1.0000      -7.667406      -208.6407
  30   1.0000      -7.666896      -208.6268
  31   1.0000      -7.666601      -208.6188
  32   1.0000      -5.695272      -154.9762
  33   1.0000      -5.695048      -154.9701
  34   1.0000      -5.692567      -154.9026
  35   1.0000      -5.692549      -154.9021
  36   1.0000      -5.691379      -154.8703
  37   1.0000      -5.691160      -154.8643
  38   1.0000      -5.688620      -154.7952
  39   1.0000      -5.688614      -154.7950
  40   1.0000      -5.684756      -154.6901
  41   1.0000      -5.684531      -154.6840
  42   1.0000      -5.681972      -154.6143
  43   1.0000      -5.681960      -154.6140
  44   1.0000      -5.632258      -153.2615
  45   1.0000      -5.632253      -153.2614
  46   1.0000      -5.631744      -153.2475
  47   1.0000      -5.631436      -153.2392
  48   1.0000      -5.625831      -153.0867
  49   1.0000      -5.625827      -153.0865
  50   1.0000      -5.625446      -153.0762
  51   1.0000      -5.625441      -153.0760
  52   1.0000      -5.625327      -153.0729
  53   1.0000      -5.625016      -153.0645
  54   1.0000      -5.624881      -153.0608
  55   1.0000      -5.624598      -153.0531
  56   1.0000      -2.409738       -65.5723
  57   1.0000      -1.451192       -39.4889
  58   1.0000      -1.439489       -39.1705
  59   1.0000      -1.438425       -39.1415
  60   1.0000      -0.656791       -17.8722
  61   1.0000      -0.645117       -17.5545
  62   1.0000      -0.618600       -16.8330
  63   1.0000      -0.602013       -16.3816
  64   1.0000      -0.595266       -16.1980
  65   1.0000      -0.574563       -15.6347
  66   1.0000      -0.568672       -15.4744
  67   1.0000      -0.495425       -13.4812
  68   1.0000      -0.490015       -13.3340
  69   1.0000      -0.488214       -13.2850
  70   1.0000      -0.482966       -13.1422
  71   1.0000      -0.427394       -11.6300
  72   1.0000      -0.422349       -11.4927
  73   1.0000      -0.410147       -11.1607
  74   1.0000      -0.399857       -10.8807
  75   1.0000      -0.375861       -10.2277
  76   1.0000      -0.372633       -10.1399
  77   1.0000      -0.304496        -8.2858
  78   1.0000      -0.294651        -8.0179
  79   1.0000      -0.277999        -7.5647
  80   1.0000      -0.277702        -7.5567
  81   1.0000      -0.259285        -7.0555
  82   1.0000      -0.253245        -6.8912
  83   1.0000      -0.244758        -6.6602
  84   1.0000      -0.241245        -6.5646
  85   1.0000      -0.216542        -5.8924
  86   1.0000      -0.195490        -5.3195
  87   1.0000      -0.194709        -5.2983
  88   1.0000      -0.189315        -5.1515
  89   1.0000      -0.183448        -4.9919
  90   1.0000      -0.182485        -4.9657
  91   1.0000      -0.170572        -4.6415
  92   1.0000      -0.151081        -4.1111
  93   1.0000      -0.148502        -4.0409
  94   1.0000      -0.142892        -3.8883
  95   1.0000      -0.140438        -3.8215
  96   1.0000      -0.137634        -3.7452
  97   1.0000      -0.097360        -2.6493
  98   1.0000      -0.096770        -2.6332
  99   1.0000      -0.086953        -2.3661
 100   1.0000      -0.082696        -2.2503
 101   1.0000      -0.080535        -2.1915
 102   1.0000      -0.075834        -2.0635
 103   1.0000      -0.062091        -1.6896
 104   1.0000      -0.050818        -1.3828
 105   1.0000      -0.037963        -1.0330
 106   1.0000      -0.037901        -1.0313
 107   1.0000      -0.033199        -0.9034
 108   1.0000      -0.031554        -0.8586
 109   1.0000      -0.012065        -0.3283
 110   1.0000      -0.004600        -0.1252
 111   1.0000      -0.002926        -0.0796
 112   1.0000       0.006095         0.1658
 113   1.0000       0.011213         0.3051
 114   1.0000       0.016327         0.4443
 115   1.0000       0.032520         0.8849
 116   1.0000       0.058581         1.5941
 117   0.0000       0.178112         4.8467
 118   0.0000       0.185118         5.0373
 119   0.0000       0.191956         5.2234
 120   0.0000       0.195397         5.3170
 121   0.0000       0.211057         5.7432

                 SPIN DOWN ORBITALS
  NO   OCC          E(Eh)            E(eV)
   0   1.0000    -196.640373     -5350.8566
   1   1.0000     -88.676474     -2413.0095
   2   1.0000     -88.676260     -2413.0037
   3   1.0000     -88.674114     -2412.9453
   4   1.0000     -88.674103     -2412.9450
   5   1.0000     -88.613314     -2411.2908
   6   1.0000     -88.613294     -2411.2903
   7   1.0000     -88.612608     -2411.2716
   8   1.0000     -88.612339     -2411.2643
   9   1.0000     -22.001376      -598.6879
  10   1.0000     -18.861076      -513.2360
  11   1.0000     -18.517759      -503.8938
  12   1.0000     -18.501587      -503.4538
  13   1.0000     -18.500916      -503.4355
  14   1.0000     -10.023571      -272.7552
  15   1.0000     -10.023543      -272.7545
  16   1.0000     -10.015952      -272.5479
  17   1.0000     -10.015924      -272.5472
  18   1.0000     -10.009652      -272.3765
  19   1.0000     -10.003826      -272.2179
  20   1.0000      -9.993656      -271.9412
  21   1.0000      -9.992954      -271.9221
  22   1.0000      -9.992069      -271.8980
  23   1.0000      -9.991362      -271.8788
  24   1.0000      -7.730028      -210.3447
  25   1.0000      -7.729805      -210.3387
  26   1.0000      -7.727264      -210.2696
  27   1.0000      -7.727246      -210.2691
  28   1.0000      -7.667570      -208.6452
  29   1.0000      -7.667556      -208.6448
  30   1.0000      -7.667044      -208.6309
  31   1.0000      -7.666749      -208.6228
  32   1.0000      -5.695288      -154.9767
  33   1.0000      -5.695065      -154.9706
  34   1.0000      -5.692582      -154.9030
  35   1.0000      -5.692564      -154.9025
  36   1.0000      -5.691399      -154.8709
  37   1.0000      -5.691180      -154.8649
  38   1.0000      -5.688641      -154.7958
  39   1.0000      -5.688635      -154.7956
  40   1.0000      -5.684773      -154.6905
  41   1.0000      -5.684548      -154.6844
  42   1.0000      -5.681988      -154.6147
  43   1.0000      -5.681976      -154.6144
  44   1.0000      -5.632433      -153.2663
  45   1.0000      -5.632428      -153.2662
  46   1.0000      -5.631915      -153.2522
  47   1.0000      -5.631608      -153.2438
  48   1.0000      -5.626221      -153.0973
  49   1.0000      -5.626220      -153.0972
  50   1.0000      -5.625716      -153.0835
  51   1.0000      -5.625586      -153.0800
  52   1.0000      -5.625580      -153.0798
  53   1.0000      -5.625407      -153.0751
  54   1.0000      -5.625018      -153.0645
  55   1.0000      -5.624734      -153.0568
  56   1.0000      -2.365603       -64.3713
  57   1.0000      -1.432405       -38.9777
  58   1.0000      -1.378131       -37.5009
  59   1.0000      -1.377500       -37.4837
  60   1.0000      -0.656765       -17.8715
  61   1.0000      -0.645071       -17.5533
  62   1.0000      -0.626225       -17.0405
  63   1.0000      -0.601788       -16.3755
  64   1.0000      -0.595063       -16.1925
  65   1.0000      -0.574557       -15.6345
  66   1.0000      -0.568658       -15.4740
  67   1.0000      -0.495401       -13.4805
  68   1.0000      -0.490045       -13.3348
  69   1.0000      -0.488221       -13.2852
  70   1.0000      -0.483017       -13.1436
  71   1.0000      -0.427686       -11.6379
  72   1.0000      -0.422657       -11.5011
  73   1.0000      -0.410175       -11.1614
  74   1.0000      -0.399915       -10.8822
  75   1.0000      -0.375829       -10.2268
  76   1.0000      -0.372647       -10.1403
  77   1.0000      -0.304486        -8.2855
  78   1.0000      -0.294635        -8.0174
  79   1.0000      -0.277954        -7.5635
  80   1.0000      -0.277681        -7.5561
  81   1.0000      -0.259078        -7.0499
  82   1.0000      -0.253174        -6.8892
  83   1.0000      -0.244677        -6.6580
  84   1.0000      -0.241164        -6.5624
  85   1.0000      -0.216537        -5.8923
  86   1.0000      -0.195461        -5.3188
  87   1.0000      -0.194380        -5.2894
  88   1.0000      -0.189143        -5.1468
  89   1.0000      -0.183283        -4.9874
  90   1.0000      -0.180516        -4.9121
  91   1.0000      -0.170482        -4.6390
  92   1.0000      -0.150383        -4.0921
  93   1.0000      -0.148173        -4.0320
  94   1.0000      -0.142679        -3.8825
  95   1.0000      -0.140201        -3.8151
  96   1.0000      -0.137377        -3.7382
  97   1.0000      -0.096881        -2.6363
  98   1.0000      -0.095308        -2.5935
  99   1.0000      -0.087272        -2.3748
 100   1.0000      -0.082502        -2.2450
 101   1.0000      -0.082161        -2.2357
 102   1.0000      -0.076464        -2.0807
 103   1.0000      -0.062742        -1.7073
 104   1.0000      -0.046378        -1.2620
 105   1.0000      -0.038016        -1.0345
 106   1.0000      -0.037078        -1.0089
 107   1.0000      -0.032226        -0.8769
 108   1.0000      -0.031505        -0.8573
 109   1.0000      -0.011177        -0.3042
 110   1.0000      -0.005937        -0.1616
 111   1.0000      -0.002112        -0.0575
 112   1.0000       0.007101         0.1932
 113   1.0000       0.012124         0.3299
 114   1.0000       0.032756         0.8913
 115   1.0000       0.057786         1.5724
 116   0.0000       0.178690         4.8624
 117   0.0000       0.184607         5.0234
 118   0.0000       0.185261         5.0412
 119   0.0000       0.192556         5.2397
 120   0.0000       0.195546         5.3211

MULLIKEN ATOMIC CHARGES AND SPIN POPULATIONS
--------------------------------------------
   0 V :    0.446112    1.198301
   1 S :   -0.249165   -0.024282
   2 S :   -0.252832   -0.024073
   3 S :   -0.249530   -0.024246
   4 S :   -0.254233   -0.024092
   5 O :   -0.506010   -0.138480
   6 C :   -0.115629    0.008826
   7 C :   -0.114456    0.008942
   8 C :   -0.108943    0.009046
   9 C :   -0.109069    0.009025
  10 S :   -0.047321   -0.000150
  11 S :   -0.046078   -0.000158
  12 S :   -0.061880    0.000014
  13 S :   -0.062172   -0.000022
  14 C :   -0.339122    0.000277
  15 C :   -0.308625    0.000242
  16 C :   -0.338303    0.000260
  17 C :   -0.309036    0.000269
  18 C :   -0.078671    0.000148
  19 H :    0.145453   -0.000100
  20 H :    0.103378    0.000021
  21 H :    0.039394    0.000028
  22 H :    0.079480    0.000030
  23 H :    0.103302    0.000022
  24 H :    0.145873   -0.000101
  25 C :   -0.070134    0.000263
  26 H :    0.104661    0.000022
  27 H :    0.134945   -0.000082
  28 H :    0.079405    0.000084
  29 H :   -0.000331    0.000025
  30 H :    0.135003   -0.000077
  31 H :    0.104534    0.000019
Sum of atomic charges         :   -2.0000000

LOEWDIN ATOMIC CHARGES AND SPIN POPULATIONS
-------------------------------------------
   0 V :   -0.245851    1.152318
   1 S :    0.091006   -0.016582
   2 S :    0.089068   -0.016285
   3 S :    0.090580   -0.016540
   4 S :    0.087057   -0.016330
   5 O :   -0.350181   -0.123947
   6 C :   -0.553511    0.009980
   7 C :   -0.553654    0.010021
   8 C :   -0.557313    0.010230
   9 C :   -0.557796    0.010264
  10 S :    0.332814   -0.001017
  11 S :    0.333935   -0.001015
  12 S :    0.312985   -0.000919
  13 S :    0.312646   -0.000937
  14 C :   -0.290444    0.000170
  15 C :   -0.275387    0.000209
  16 C :   -0.290649    0.000159
  17 C :   -0.275405    0.000222
  18 C :   -0.186113   -0.000032
  19 H :    0.066383   -0.000026
  20 H :    0.048466    0.000004
  21 H :    0.046477    0.000019
  22 H :    0.053064    0.000012
  23 H :    0.048439    0.000006
  24 H :    0.066540   -0.000026
  25 C :   -0.202959   -0.000015
  26 H :    0.057425    0.000010
  27 H :    0.069278   -0.000022
  28 H :    0.055654    0.000011
  29 H :    0.050682    0.000069
  30 H :    0.069343   -0.000021
  31 H :    0.057421    0.000009

  Mayer bond orders larger than 0.100000
B(  0-V ,  1-S ) :   0.7888 B(  0-V ,  2-S ) :   0.7899 B(  0-V ,  3-S ) :   0.7911
B(  0-V ,  4-S ) :   0.7886 B(  0-V ,  5-O ) :   2.1086 B(  1-S ,  8-C ) :   1.1399
B(  2-S ,  6-C ) :   1.1388 B(  3-S ,  9-C ) :   1.1381 B(  4-S ,  7-C ) :   1.1365
B(  6-C ,  7-C ) :   1.5137 B(  6-C , 10-S ) :   0.9540 B(  7-C , 11-S ) :   0.9561
B(  8-C ,  9-C ) :   1.4867 B(  8-C , 13-S ) :   0.9631 B(  9-C , 12-S ) :   0.9638
B( 10-S , 16-C ) :   1.0021 B( 11-S , 14-C ) :   1.0014 B( 12-S , 15-C ) :   0.9593
B( 13-S , 17-C ) :   0.9599 B( 14-C , 18-C ) :   0.8821 B( 14-C , 23-H ) :   0.9685
B( 14-C , 24-H ) :   0.9762 B( 15-C , 25-C ) :   0.9142 B( 15-C , 30-H ) :   0.9762
B( 15-C , 31-H ) :   0.9586 B( 16-C , 18-C ) :   0.8817 B( 16-C , 19-H ) :   0.9763
B( 16-C , 20-H ) :   0.9685 B( 17-C , 25-C ) :   0.9139 B( 17-C , 26-H ) :   0.9587
B( 17-C , 27-H ) :   0.9761 B( 18-C , 21-H ) :   0.9553 B( 18-C , 22-H ) :   0.9683
B( 25-C , 28-H ) :   0.9212 B( 25-C , 29-H ) :   0.9597

FINAL SINGLE POINT ENERGY     -4592.678720867644

DIPOLE MOMENT
-------------
                                X             Y             Z
Electronic contribution:      9.04725     -21.20283      14.80106
Nuclear contribution   :    -10.06191      23.70023     -16.48501
                        -----------------------------------------
Total Dipole Moment    :     -1.01467       2.49740      -1.68394
                        -----------------------------------------
Magnitude (a.u.)       :      3.17840
Magnitude (Debye)      :      8.07884

Rotational constants in cm-1:     0.012767     0.002548     0.002433
Rotational constants in MHz :   382.758638    76.377450    72.928241

                             ****ORCA TERMINATED NORMALLY****
TOTAL RUN TIME: 0 days 0 hours 43 minutes 3 seconds 635 msec
