                         Program Version 5.0.4 -  RELEASE  -
|  1> ! nofrozencore ReducedPop printbasis
|  2> ! B3LYP TZVP
|  3>
|  4> %basis
|  5> newgto V "CP(PPP)" end
|  6> end
|  7>
|  8> %pal
|  9> nprocs 4
| 10> end
| 11>
| 12> % sym SymThresh 1e-2 end
| 13> * xyz -2 2
| 14> V 0.8370954344794636 -0.07392212694739327 -0.7334388564817189
| 15> S -1.235040372390646 -0.6457868347626493 -1.9102315529020075
| 16> S 0.009651715618611133 2.2309882208652003 -0.7621379300233946
| 17> S 0.5330417260779132 -2.278736631093927 0.2890148149569139
| 18> S 1.8017942533956348 0.5975392989691913 1.4172646604744916
| 19> O 2.03168067432395 -0.18231972340636513 -1.7872268347447129
| 20> C 0.9576940797792282 3.042802223343339 0.48910501634480524
| 21> C 1.7046197315612834 2.363611580038072 1.3990663502939629
| 22> C -1.3954808395882377 -2.3895187298715923 -1.6672470043187844
| 23> C -0.6582345565572626 -3.0704835211992743 -0.7502772710248995
| 24> S 0.8329537425887911 4.844189741135265 0.483550833771565
| 25> S 2.6454411684419554 3.1863166922047435 2.698274403145627
| 26> S -0.8451122475639202 -4.843504155500167 -0.4725318847242777
| 27> S -2.638205376733177 -3.186771137490018 -2.7045150876297095
| 28> C 1.3280159662513686 3.929104459710976 3.7441969244330298
| 29> C -2.536198144854399 -4.970997809471497 0.25979574058033633
| 30> C -0.12479508778923747 5.208431326328462 2.0307466584593983
| 31> C -3.9361258026002446 -3.6788562924995367 -1.4883274322749498
| 32> C 0.7404767581605012 5.246990642842505 3.319173008594206
| 33> H -0.6849926222308518 4.229418187358404 2.1887176516655256
| 34> H -0.2714245216746221 6.3288466543082595 1.8894057411977079
| 35> H 0.10501102081212833 5.61557200841238 4.140977342516177
| 36> H 1.5645713332369688 5.960634713609281 3.2104364571040973
| 37> H 1.6160090544331234 3.7881147141289255 4.855576835001079
| 38> H 0.639979844762558 3.1056969417525404 4.172338993945196
| 39> C -3.6984075351833243 -4.984596815085291 -0.7352782935676679
| 40> H -4.863746890544621 -3.738516108059756 -2.0685813442248926
| 41> H -4.08781082098883 -2.835798448350654 -0.8089613608248865
| 42> H -3.5456535015973563 -5.792201199851611 -1.4594122306058597
| 43> H -4.617911558308245 -5.224316264869714 -0.1770483891535998
| 44> H -2.6421720297711184 -4.134396019375017 0.9533256338236071
| 45> H -2.527075963849168 -5.92445639594189 0.7965081910420226
| 46> *
| 47>
| 48> % eprnmr
| 49> gtensor true
| 50> Nuclei = all H {aiso,adip,aorb,fgrad,rho}
| 51> Nuclei = all V {aiso,adip,aorb,fgrad,rho}
| 52> end
| 53>
| 54>                          ****END OF INPUT****

CARTESIAN COORDINATES (ANGSTROEM)
---------------------------------
  V      0.838011   -0.073927   -0.734194
  S     -1.234125   -0.645792   -1.910987
  S      0.010567    2.230983   -0.762893
  S      0.533957   -2.278742    0.288260
  S      1.802710    0.597534    1.416510
  O      2.032596   -0.182325   -1.787982
  C      0.958610    3.042797    0.488350
  C      1.705535    2.363606    1.398311
  C     -1.394565   -2.389524   -1.668002
  C     -0.657319   -3.070489   -0.751032
  S      0.833869    4.844185    0.482796
  S      2.646357    3.186311    2.697519
  S     -0.844197   -4.843509   -0.473287
  S     -2.637290   -3.186776   -2.705270
  C      1.328932    3.929099    3.743442
  C     -2.535282   -4.971003    0.259041
  C     -0.123879    5.208426    2.029992
  C     -3.935210   -3.678862   -1.489082
  C      0.741392    5.246985    3.318418
  H     -0.684077    4.229413    2.187963
  H     -0.270509    6.328841    1.888651
  H      0.105927    5.615567    4.140222
  H      1.565487    5.960629    3.209681
  H      1.616925    3.788109    4.854822
  H      0.640896    3.105692    4.171584
  C     -3.697492   -4.984602   -0.736033
  H     -4.862831   -3.738521   -2.069336
  H     -4.086895   -2.835804   -0.809716
  H     -3.544738   -5.792206   -1.460167
  H     -4.616996   -5.224322   -0.177803
  H     -2.641256   -4.134401    0.952571
  H     -2.526160   -5.924462    0.795753

 Total Charge           Charge          ....   -2
 Multiplicity           Mult            ....    2
 Number of Electrons    NEL             ....  233
 Basis Dimension        Dim             ....  517

ORBITAL ENERGIES
----------------
                 SPIN UP ORBITALS
  NO   OCC          E(Eh)            E(eV)
   0   1.0000    -196.640462     -5350.8590
   1   1.0000     -88.680980     -2413.1321
   2   1.0000     -88.676830     -2413.0192
   3   1.0000     -88.676384     -2413.0071
   4   1.0000     -88.675031     -2412.9703
   5   1.0000     -88.612908     -2411.2798
   6   1.0000     -88.612250     -2411.2619
   7   1.0000     -88.612211     -2411.2609
   8   1.0000     -88.612172     -2411.2598
   9   1.0000     -22.016255      -599.0927
  10   1.0000     -18.857526      -513.1394
  11   1.0000     -18.523082      -504.0387
  12   1.0000     -18.517304      -503.8815
  13   1.0000     -18.517264      -503.8804
  14   1.0000     -10.028726      -272.8955
  15   1.0000     -10.024385      -272.7774
  16   1.0000     -10.015805      -272.5439
  17   1.0000     -10.015243      -272.5286
  18   1.0000     -10.006785      -272.2985
  19   1.0000     -10.004734      -272.2426
  20   1.0000      -9.992572      -271.9117
  21   1.0000      -9.992019      -271.8966
  22   1.0000      -9.991475      -271.8818
  23   1.0000      -9.991296      -271.8770
  24   1.0000      -7.734156      -210.4571
  25   1.0000      -7.730448      -210.3562
  26   1.0000      -7.730062      -210.3457
  27   1.0000      -7.728829      -210.3121
  28   1.0000      -7.667331      -208.6387
  29   1.0000      -7.666690      -208.6212
  30   1.0000      -7.666656      -208.6203
  31   1.0000      -7.666573      -208.6181
  32   1.0000      -5.699477      -155.0907
  33   1.0000      -5.695696      -154.9878
  34   1.0000      -5.695507      -154.9826
  35   1.0000      -5.695301      -154.9770
  36   1.0000      -5.694005      -154.9418
  37   1.0000      -5.691806      -154.8819
  38   1.0000      -5.691413      -154.8712
  39   1.0000      -5.690167      -154.8373
  40   1.0000      -5.688920      -154.8034
  41   1.0000      -5.685197      -154.7021
  42   1.0000      -5.684815      -154.6917
  43   1.0000      -5.683625      -154.6593
  44   1.0000      -5.632196      -153.2598
  45   1.0000      -5.631536      -153.2419
  46   1.0000      -5.631481      -153.2404
  47   1.0000      -5.631424      -153.2388
  48   1.0000      -5.625734      -153.0840
  49   1.0000      -5.625338      -153.0732
  50   1.0000      -5.625125      -153.0674
  51   1.0000      -5.625111      -153.0671
  52   1.0000      -5.625020      -153.0646
  53   1.0000      -5.624667      -153.0550
  54   1.0000      -5.624631      -153.0540
  55   1.0000      -5.624568      -153.0523
  56   1.0000      -2.409958       -65.5783
  57   1.0000      -1.451323       -39.4925
  58   1.0000      -1.439733       -39.1771
  59   1.0000      -1.438654       -39.1478
  60   1.0000      -0.644542       -17.5389
  61   1.0000      -0.643931       -17.5222
  62   1.0000      -0.618580       -16.8324
  63   1.0000      -0.594620       -16.1804
  64   1.0000      -0.593698       -16.1553
  65   1.0000      -0.576002       -15.6738
  66   1.0000      -0.575216       -15.6524
  67   1.0000      -0.492240       -13.3945
  68   1.0000      -0.490172       -13.3383
  69   1.0000      -0.487614       -13.2687
  70   1.0000      -0.486402       -13.2357
  71   1.0000      -0.424885       -11.5617
  72   1.0000      -0.421291       -11.4639
  73   1.0000      -0.412027       -11.2118
  74   1.0000      -0.406747       -11.0682
  75   1.0000      -0.376487       -10.2447
  76   1.0000      -0.373435       -10.1617
  77   1.0000      -0.309651        -8.4260
  78   1.0000      -0.293191        -7.9781
  79   1.0000      -0.285031        -7.7561
  80   1.0000      -0.277933        -7.5629
  81   1.0000      -0.259178        -7.0526
  82   1.0000      -0.250923        -6.8280
  83   1.0000      -0.240433        -6.5425
  84   1.0000      -0.219384        -5.9698
  85   1.0000      -0.208018        -5.6604
  86   1.0000      -0.195171        -5.3109
  87   1.0000      -0.192043        -5.2257
  88   1.0000      -0.187174        -5.0933
  89   1.0000      -0.184200        -5.0123
  90   1.0000      -0.178849        -4.8667
  91   1.0000      -0.166397        -4.5279
  92   1.0000      -0.151207        -4.1146
  93   1.0000      -0.148444        -4.0394
  94   1.0000      -0.142784        -3.8853
  95   1.0000      -0.139958        -3.8085
  96   1.0000      -0.124180        -3.3791
  97   1.0000      -0.097676        -2.6579
  98   1.0000      -0.093860        -2.5541
  99   1.0000      -0.089787        -2.4432
 100   1.0000      -0.083815        -2.2807
 101   1.0000      -0.080584        -2.1928
 102   1.0000      -0.079512        -2.1636
 103   1.0000      -0.070155        -1.9090
 104   1.0000      -0.050441        -1.3726
 105   1.0000      -0.039882        -1.0853
 106   1.0000      -0.037741        -1.0270
 107   1.0000      -0.035954        -0.9784
 108   1.0000      -0.031822        -0.8659
 109   1.0000      -0.013417        -0.3651
 110   1.0000      -0.004706        -0.1281
 111   1.0000      -0.003712        -0.1010
 112   1.0000       0.005851         0.1592
 113   1.0000       0.010223         0.2782
 114   1.0000       0.015919         0.4332
 115   1.0000       0.033079         0.9001
 116   1.0000       0.059277         1.6130
 117   0.0000       0.185890         5.0583
 118   0.0000       0.188610         5.1323
 119   0.0000       0.193420         5.2632
 120   0.0000       0.196357         5.3432
 121   0.0000       0.210628         5.7315

                 SPIN DOWN ORBITALS
  NO   OCC          E(Eh)            E(eV)
   0   1.0000    -196.640603     -5350.8629
   1   1.0000     -88.680993     -2413.1325
   2   1.0000     -88.676843     -2413.0196
   3   1.0000     -88.676398     -2413.0075
   4   1.0000     -88.675044     -2412.9706
   5   1.0000     -88.613066     -2411.2841
   6   1.0000     -88.612410     -2411.2663
   7   1.0000     -88.612371     -2411.2652
   8   1.0000     -88.612332     -2411.2641
   9   1.0000     -22.001585      -598.6936
  10   1.0000     -18.861111      -513.2369
  11   1.0000     -18.517950      -503.8990
  12   1.0000     -18.501810      -503.4598
  13   1.0000     -18.501131      -503.4414
  14   1.0000     -10.028722      -272.8954
  15   1.0000     -10.024381      -272.7773
  16   1.0000     -10.015801      -272.5438
  17   1.0000     -10.015239      -272.5285
  18   1.0000     -10.006785      -272.2985
  19   1.0000     -10.004734      -272.2426
  20   1.0000      -9.992318      -271.9048
  21   1.0000      -9.991764      -271.8897
  22   1.0000      -9.991221      -271.8750
  23   1.0000      -9.991043      -271.8701
  24   1.0000      -7.734170      -210.4575
  25   1.0000      -7.730462      -210.3566
  26   1.0000      -7.730076      -210.3461
  27   1.0000      -7.728842      -210.3125
  28   1.0000      -7.667478      -208.6427
  29   1.0000      -7.666838      -208.6253
  30   1.0000      -7.666804      -208.6243
  31   1.0000      -7.666722      -208.6221
  32   1.0000      -5.699493      -155.0911
  33   1.0000      -5.695713      -154.9882
  34   1.0000      -5.695527      -154.9832
  35   1.0000      -5.695318      -154.9775
  36   1.0000      -5.694023      -154.9422
  37   1.0000      -5.691826      -154.8825
  38   1.0000      -5.691433      -154.8718
  39   1.0000      -5.690186      -154.8378
  40   1.0000      -5.688936      -154.8038
  41   1.0000      -5.685214      -154.7025
  42   1.0000      -5.684832      -154.6921
  43   1.0000      -5.683641      -154.6597
  44   1.0000      -5.632367      -153.2645
  45   1.0000      -5.631708      -153.2466
  46   1.0000      -5.631653      -153.2451
  47   1.0000      -5.631596      -153.2435
  48   1.0000      -5.626122      -153.0946
  49   1.0000      -5.625515      -153.0780
  50   1.0000      -5.625503      -153.0777
  51   1.0000      -5.625471      -153.0768
  52   1.0000      -5.625413      -153.0753
  53   1.0000      -5.624803      -153.0587
  54   1.0000      -5.624766      -153.0577
  55   1.0000      -5.624703      -153.0560
  56   1.0000      -2.365769       -64.3759
  57   1.0000      -1.432491       -38.9801
  58   1.0000      -1.378320       -37.5060
  59   1.0000      -1.377674       -37.4884
  60   1.0000      -0.644491       -17.5375
  61   1.0000      -0.643881       -17.5209
  62   1.0000      -0.626259       -17.0414
  63   1.0000      -0.594428       -16.1752
  64   1.0000      -0.593495       -16.1498
  65   1.0000      -0.575997       -15.6737
  66   1.0000      -0.575210       -15.6523
  67   1.0000      -0.492263       -13.3952
  68   1.0000      -0.490207       -13.3392
  69   1.0000      -0.487618       -13.2688
  70   1.0000      -0.486423       -13.2362
  71   1.0000      -0.425112       -11.5679
  72   1.0000      -0.421582       -11.4718
  73   1.0000      -0.412055       -11.2126
  74   1.0000      -0.406855       -11.0711
  75   1.0000      -0.376444       -10.2436
  76   1.0000      -0.373462       -10.1624
  77   1.0000      -0.309648        -8.4259
  78   1.0000      -0.293174        -7.9777
  79   1.0000      -0.285003        -7.7553
  80   1.0000      -0.277913        -7.5624
  81   1.0000      -0.258993        -7.0475
  82   1.0000      -0.250782        -6.8241
  83   1.0000      -0.240349        -6.5402
  84   1.0000      -0.219354        -5.9689
  85   1.0000      -0.207994        -5.6598
  86   1.0000      -0.194891        -5.3033
  87   1.0000      -0.191845        -5.2204
  88   1.0000      -0.186518        -5.0754
  89   1.0000      -0.184140        -5.0107
  90   1.0000      -0.177334        -4.8255
  91   1.0000      -0.166270        -4.5244
  92   1.0000      -0.150550        -4.0967
  93   1.0000      -0.148127        -4.0307
  94   1.0000      -0.142584        -3.8799
  95   1.0000      -0.139721        -3.8020
  96   1.0000      -0.123987        -3.3739
  97   1.0000      -0.096155        -2.6165
  98   1.0000      -0.093400        -2.5415
  99   1.0000      -0.089934        -2.4472
 100   1.0000      -0.083788        -2.2800
 101   1.0000      -0.082440        -2.2433
 102   1.0000      -0.079144        -2.1536
 103   1.0000      -0.071454        -1.9444
 104   1.0000      -0.046406        -1.2628
 105   1.0000      -0.039696        -1.0802
 106   1.0000      -0.037266        -1.0141
 107   1.0000      -0.034987        -0.9521
 108   1.0000      -0.031720        -0.8632
 109   1.0000      -0.012509        -0.3404
 110   1.0000      -0.006047        -0.1646
 111   1.0000      -0.002714        -0.0738
 112   1.0000       0.006700         0.1823
 113   1.0000       0.011121         0.3026
 114   1.0000       0.033336         0.9071
 115   1.0000       0.058485         1.5914
 116   0.0000       0.184757         5.0275
 117   0.0000       0.186885         5.0854
 118   0.0000       0.188753         5.1362
 119   0.0000       0.194178         5.2839
 120   0.0000       0.196547         5.3483

MULLIKEN ATOMIC CHARGES AND SPIN POPULATIONS
--------------------------------------------
   0 V :    0.447727    1.199326
   1 S :   -0.253394   -0.024300
   2 S :   -0.252278   -0.024071
   3 S :   -0.254728   -0.024211
   4 S :   -0.255701   -0.023861
   5 O :   -0.506345   -0.138925
   6 C :   -0.128532    0.008891
   7 C :   -0.101322    0.008878
   8 C :   -0.115614    0.008930
   9 C :   -0.116023    0.008886
  10 S :   -0.043360   -0.000148
  11 S :   -0.010643   -0.000158
  12 S :   -0.045411   -0.000195
  13 S :   -0.043860   -0.000228
  14 C :   -0.368128    0.000209
  15 C :   -0.337180    0.000304
  16 C :   -0.325361    0.000251
  17 C :   -0.339502    0.000316
  18 C :   -0.074781    0.000195
  19 H :    0.181444   -0.000131
  20 H :    0.090303    0.000026
  21 H :    0.043498    0.000047
  22 H :    0.079699    0.000010
  23 H :    0.081525    0.000053
  24 H :    0.111387   -0.000113
  25 C :   -0.083783    0.000134
  26 H :    0.101373    0.000029
  27 H :    0.145692   -0.000107
  28 H :    0.078413    0.000012
  29 H :    0.044459    0.000035
  30 H :    0.148554   -0.000109
  31 H :    0.101873    0.000027
Sum of atomic charges         :   -2.0000000

LOEWDIN ATOMIC CHARGES AND SPIN POPULATIONS
-------------------------------------------
   0 V :   -0.242773    1.153313
   1 S :    0.088512   -0.016472
   2 S :    0.090484   -0.016317
   3 S :    0.087656   -0.016383
   4 S :    0.087669   -0.016129
   5 O :   -0.350830   -0.124358
   6 C :   -0.559127    0.009966
   7 C :   -0.551475    0.010014
   8 C :   -0.552196    0.009962
   9 C :   -0.553370    0.009981
  10 S :    0.330179   -0.001022
  11 S :    0.350175   -0.001004
  12 S :    0.335845   -0.001042
  13 S :    0.337706   -0.001058
  14 C :   -0.350649    0.000163
  15 C :   -0.291814    0.000169
  16 C :   -0.305319    0.000156
  17 C :   -0.296195    0.000178
  18 C :   -0.192776   -0.000034
  19 H :    0.096723   -0.000029
  20 H :    0.064988   -0.000006
  21 H :    0.048359    0.000018
  22 H :    0.051625    0.000013
  23 H :    0.061942    0.000021
  24 H :    0.072386   -0.000051
  25 C :   -0.184917   -0.000039
  26 H :    0.047291    0.000010
  27 H :    0.065115   -0.000029
  28 H :    0.053403    0.000011
  29 H :    0.046798    0.000018
  30 H :    0.067063   -0.000026
  31 H :    0.047522    0.000008

  Mayer bond orders larger than 0.100000
B(  0-V ,  1-S ) :   0.7892 B(  0-V ,  2-S ) :   0.7917 B(  0-V ,  3-S ) :   0.7909
B(  0-V ,  4-S ) :   0.7842 B(  0-V ,  5-O ) :   2.1083 B(  1-S ,  8-C ) :   1.1378
B(  2-S ,  6-C ) :   1.1371 B(  3-S ,  9-C ) :   1.1366 B(  4-S ,  7-C ) :   1.1351
B(  6-C ,  7-C ) :   1.4936 B(  6-C , 10-S ) :   0.9546 B(  7-C , 11-S ) :   0.9553
B(  8-C ,  9-C ) :   1.5178 B(  8-C , 13-S ) :   0.9543 B(  9-C , 12-S ) :   0.9531
B( 10-S , 16-C ) :   1.0190 B( 11-S , 14-C ) :   1.0509 B( 12-S , 15-C ) :   1.0067
B( 13-S , 17-C ) :   1.0044 B( 14-C , 18-C ) :   0.9203 B( 14-C , 23-H ) :   0.9470
B( 14-C , 24-H ) :   0.9348 B( 15-C , 25-C ) :   0.8758 B( 15-C , 30-H ) :   0.9756
B( 15-C , 31-H ) :   0.9702 B( 16-C , 18-C ) :   0.8675 B( 16-C , 19-H ) :   0.9656
B( 16-C , 20-H ) :   0.9600 B( 17-C , 25-C ) :   0.8806 B( 17-C , 26-H ) :   0.9699
B( 17-C , 27-H ) :   0.9743 B( 18-C , 21-H ) :   0.9489 B( 18-C , 22-H ) :   0.9760
B( 25-C , 28-H ) :   0.9739 B( 25-C , 29-H ) :   0.9525

FINAL SINGLE POINT ENERGY     -4592.661092951491

DIPOLE MOMENT
-------------
                                X             Y             Z
Electronic contribution:     19.75949      -1.54004     -17.95222
Nuclear contribution   :    -21.98748       1.63519      19.98706
                        -----------------------------------------
Total Dipole Moment    :     -2.22798       0.09516       2.03484
                        -----------------------------------------
Magnitude (a.u.)       :      3.01887
Magnitude (Debye)      :      7.67335

Rotational constants in cm-1:     0.012769     0.002548     0.002431
Rotational constants in MHz :   382.792133    76.396470    72.880533

                             ****ORCA TERMINATED NORMALLY****
TOTAL RUN TIME: 0 days 0 hours 43 minutes 13 seconds 119 msec
