                         Program Version 5.0.4 -  RELEASE  -
|  1> ! nofrozencore ReducedPop printbasis
|  2> ! B3LYP TZVP
|  3>
|  4> %basis
|  5> newgto V "CP(PPP)" end
|  6> end
|  7>
|  8> %pal
|  9> nprocs 8
| 10> end
| 11>
| 12> % sym SymThresh 1e-2 end
| 13> * xyz -2 2
| 14> V -0.19769201307440537 0.3778623236670655 -1.0300817861599703
| 15> S 2.2087791361823363 -0.11254370527445083 -0.9256665154437148
| 16> S -0.5205852394989708 -2.0409955295139324 -0.9879334177129254
| 17> S 0.27425202674542537 2.3474048137943058 0.3665448901053538
| 18> S -2.318571255541414 0.24660886763369405 0.18107263690170614
| 19> O -0.40521991911566335 0.9617026405683297 -2.504448619138711
| 20> C -2.2399180830450387 -2.3341218534202257 -0.6778236100867001
| 21> C -3.020037799080238 -1.3419580254856096 -0.17100375757962896
| 22> C 2.8220747395696653 1.3917779268151131 -0.21553931843872615
| 23> C 2.046306349136116 2.380027941307645 0.3014103071580537
| 24> S -2.6952889444774732 -4.073678462396839 -0.9130032698663348
| 25> S -4.730255870613482 -1.4887885485064387 0.41299801343441594
| 26> S 2.8544719922830946 3.9083365757938062 0.8377551311527225
| 27> S 4.606194704872922 1.674555000024957 -0.32964791988131237
| 28> C -4.510172516344257 -2.6807186062491604 1.8044317845791438
| 29> C 3.741935355856653 3.4456553156000735 2.4002975553349413
| 30> C -3.0255670082697974 -4.5792606870860935 0.8305759925871558
| 31> C 5.2146327405572315 1.5796877462509102 1.4206087167937178
| 32> C -4.373827322529261 -4.155905425212422 1.4190272138568942
| 33> H -2.198441724896667 -4.204572895591833 1.439859801707398
| 34> H -2.9634592262131965 -5.674550362940562 0.8188493210805144
| 35> H -4.533326359652334 -4.751657845598296 2.3356789889144607
| 36> H -5.175679319767755 -4.4236219464414805 0.7191599923158013
| 37> H -5.403057160956776 -2.5499661687606134 2.4289491072107707
| 38> H -3.6450454413468223 -2.3464861725608688 2.384256569460047
| 39> C 5.150049895913793 2.8789552287764844 2.2228733509889547
| 40> H 6.257038906770185 1.2496588399496364 1.3330888711597215
| 41> H 4.653961863627087 0.7829126709384036 1.9167028470675318
| 42> H 5.784644694713986 3.634039642993958 1.7394154652050982
| 43> H 5.579861569832809 2.6924653303958475 3.2229518916015976
| 44> H 3.1009282665558335 2.745107142749403 2.9414286229550495
| 45> H 3.786514954615771 4.374651660961735 2.9810949649737517
| 46> *
| 47>
| 48> % eprnmr
| 49> gtensor true
| 50> Nuclei = all H {aiso,adip,aorb,fgrad,rho}
| 51> Nuclei = all V {aiso,adip,aorb,fgrad,rho}
| 52> end
| 53>
| 54>                          ****END OF INPUT****

CARTESIAN COORDINATES (ANGSTROEM)
---------------------------------
  V     -0.197970    0.378206   -1.031183
  S      2.208501   -0.112200   -0.926768
  S     -0.520863   -2.040652   -0.989035
  S      0.273974    2.347749    0.365443
  S     -2.318849    0.246953    0.179971
  O     -0.405498    0.962047   -2.505550
  C     -2.240196   -2.333778   -0.678925
  C     -3.020316   -1.341614   -0.172105
  C      2.821797    1.392122   -0.216641
  C      2.046029    2.380372    0.300309
  S     -2.695567   -4.073335   -0.914105
  S     -4.730534   -1.488445    0.411897
  S      2.854194    3.908680    0.836654
  S      4.605917    1.674899   -0.330749
  C     -4.510450   -2.680375    1.803330
  C      3.741658    3.445999    2.399196
  C     -3.025845   -4.578917    0.829475
  C      5.214355    1.580032    1.419507
  C     -4.374105   -4.155562    1.417926
  H     -2.198719   -4.204229    1.438758
  H     -2.963737   -5.674206    0.817748
  H     -4.533604   -4.751314    2.334578
  H     -5.175957   -4.423278    0.718059
  H     -5.403335   -2.549622    2.427848
  H     -3.645323   -2.346142    2.383155
  C      5.149772    2.879299    2.221772
  H      6.256761    1.250003    1.331987
  H      4.653684    0.783257    1.915601
  H      5.784367    3.634384    1.738314
  H      5.579584    2.692809    3.221850
  H      3.100651    2.745451    2.940327
  H      3.786237    4.374996    2.979994

 Total Charge           Charge          ....   -2
 Multiplicity           Mult            ....    2
 Number of Electrons    NEL             ....  233
 Basis Dimension        Dim             ....  517

ORBITAL ENERGIES
----------------
                 SPIN UP ORBITALS
  NO   OCC          E(Eh)            E(eV)
   0   1.0000    -196.640370     -5350.8565
   1   1.0000     -88.681438     -2413.1446
   2   1.0000     -88.681401     -2413.1436
   3   1.0000     -88.671756     -2412.8812
   4   1.0000     -88.671747     -2412.8809
   5   1.0000     -88.612914     -2411.2800
   6   1.0000     -88.612837     -2411.2779
   7   1.0000     -88.611727     -2411.2477
   8   1.0000     -88.611618     -2411.2447
   9   1.0000     -22.016058      -599.0874
  10   1.0000     -18.856826      -513.1203
  11   1.0000     -18.522893      -504.0336
  12   1.0000     -18.517097      -503.8758
  13   1.0000     -18.517085      -503.8755
  14   1.0000     -10.017501      -272.5901
  15   1.0000     -10.017470      -272.5892
  16   1.0000     -10.014349      -272.5043
  17   1.0000     -10.014172      -272.4995
  18   1.0000     -10.005780      -272.2711
  19   1.0000     -10.005160      -272.2542
  20   1.0000      -9.994258      -271.9576
  21   1.0000      -9.993551      -271.9383
  22   1.0000      -9.991329      -271.8779
  23   1.0000      -9.990609      -271.8583
  24   1.0000      -7.734736      -210.4729
  25   1.0000      -7.734718      -210.4724
  26   1.0000      -7.725442      -210.2200
  27   1.0000      -7.725428      -210.2196
  28   1.0000      -7.667014      -208.6300
  29   1.0000      -7.666965      -208.6287
  30   1.0000      -7.666234      -208.6088
  31   1.0000      -7.666123      -208.6058
  32   1.0000      -5.699978      -155.1043
  33   1.0000      -5.699954      -155.1036
  34   1.0000      -5.696161      -155.0004
  35   1.0000      -5.696146      -155.0000
  36   1.0000      -5.690705      -154.8519
  37   1.0000      -5.690697      -154.8517
  38   1.0000      -5.689497      -154.8191
  39   1.0000      -5.689471      -154.8184
  40   1.0000      -5.686821      -154.7463
  41   1.0000      -5.686817      -154.7462
  42   1.0000      -5.680109      -154.5636
  43   1.0000      -5.680101      -154.5634
  44   1.0000      -5.631942      -153.2529
  45   1.0000      -5.631895      -153.2517
  46   1.0000      -5.631049      -153.2286
  47   1.0000      -5.630947      -153.2259
  48   1.0000      -5.625559      -153.0793
  49   1.0000      -5.625510      -153.0779
  50   1.0000      -5.624880      -153.0608
  51   1.0000      -5.624829      -153.0594
  52   1.0000      -5.624680      -153.0553
  53   1.0000      -5.624543      -153.0516
  54   1.0000      -5.624208      -153.0425
  55   1.0000      -5.624088      -153.0392
  56   1.0000      -2.409703       -65.5714
  57   1.0000      -1.450871       -39.4802
  58   1.0000      -1.439426       -39.1688
  59   1.0000      -1.438519       -39.1441
  60   1.0000      -0.643858       -17.5203
  61   1.0000      -0.642026       -17.4704
  62   1.0000      -0.617765       -16.8102
  63   1.0000      -0.593212       -16.1421
  64   1.0000      -0.592772       -16.1302
  65   1.0000      -0.580050       -15.7840
  66   1.0000      -0.568237       -15.4625
  67   1.0000      -0.492345       -13.3974
  68   1.0000      -0.488160       -13.2835
  69   1.0000      -0.486900       -13.2492
  70   1.0000      -0.484169       -13.1749
  71   1.0000      -0.422030       -11.4840
  72   1.0000      -0.419196       -11.4069
  73   1.0000      -0.412455       -11.2235
  74   1.0000      -0.407079       -11.0772
  75   1.0000      -0.378631       -10.3031
  76   1.0000      -0.371351       -10.1050
  77   1.0000      -0.292520        -7.9599
  78   1.0000      -0.292229        -7.9519
  79   1.0000      -0.277896        -7.5619
  80   1.0000      -0.275851        -7.5063
  81   1.0000      -0.260422        -7.0864
  82   1.0000      -0.254400        -6.9226
  83   1.0000      -0.242300        -6.5933
  84   1.0000      -0.237025        -6.4498
  85   1.0000      -0.195444        -5.3183
  86   1.0000      -0.194963        -5.3052
  87   1.0000      -0.191573        -5.2130
  88   1.0000      -0.188286        -5.1235
  89   1.0000      -0.184461        -5.0194
  90   1.0000      -0.183139        -4.9835
  91   1.0000      -0.180440        -4.9100
  92   1.0000      -0.150807        -4.1037
  93   1.0000      -0.150638        -4.0991
  94   1.0000      -0.145137        -3.9494
  95   1.0000      -0.141987        -3.8637
  96   1.0000      -0.140272        -3.8170
  97   1.0000      -0.097292        -2.6475
  98   1.0000      -0.096092        -2.6148
  99   1.0000      -0.089195        -2.4271
 100   1.0000      -0.083443        -2.2706
 101   1.0000      -0.082112        -2.2344
 102   1.0000      -0.077302        -2.1035
 103   1.0000      -0.068937        -1.8759
 104   1.0000      -0.050784        -1.3819
 105   1.0000      -0.041541        -1.1304
 106   1.0000      -0.041155        -1.1199
 107   1.0000      -0.035087        -0.9548
 108   1.0000      -0.028853        -0.7851
 109   1.0000      -0.012888        -0.3507
 110   1.0000      -0.005465        -0.1487
 111   1.0000      -0.001032        -0.0281
 112   1.0000       0.008853         0.2409
 113   1.0000       0.014845         0.4039
 114   1.0000       0.016250         0.4422
 115   1.0000       0.033017         0.8984
 116   1.0000       0.058928         1.6035
 117   0.0000       0.188148         5.1198
 118   0.0000       0.195671         5.3245
 119   0.0000       0.195732         5.3261
 120   0.0000       0.196026         5.3341
 121   0.0000       0.210410         5.7255

                 SPIN DOWN ORBITALS
  NO   OCC          E(Eh)            E(eV)
   0   1.0000    -196.640511     -5350.8603
   1   1.0000     -88.681454     -2413.1450
   2   1.0000     -88.681417     -2413.1440
   3   1.0000     -88.671766     -2412.8814
   4   1.0000     -88.671756     -2412.8811
   5   1.0000     -88.613075     -2411.2843
   6   1.0000     -88.612998     -2411.2823
   7   1.0000     -88.611889     -2411.2521
   8   1.0000     -88.611780     -2411.2491
   9   1.0000     -22.001344      -598.6870
  10   1.0000     -18.860429      -513.2184
  11   1.0000     -18.517730      -503.8930
  12   1.0000     -18.501548      -503.4527
  13   1.0000     -18.500927      -503.4358
  14   1.0000     -10.017498      -272.5900
  15   1.0000     -10.017466      -272.5891
  16   1.0000     -10.014345      -272.5042
  17   1.0000     -10.014168      -272.4994
  18   1.0000     -10.005781      -272.2711
  19   1.0000     -10.005158      -272.2542
  20   1.0000      -9.994026      -271.9513
  21   1.0000      -9.993320      -271.9321
  22   1.0000      -9.991057      -271.8705
  23   1.0000      -9.990339      -271.8509
  24   1.0000      -7.734753      -210.4733
  25   1.0000      -7.734734      -210.4728
  26   1.0000      -7.725452      -210.2202
  27   1.0000      -7.725438      -210.2199
  28   1.0000      -7.667163      -208.6341
  29   1.0000      -7.667114      -208.6328
  30   1.0000      -7.666386      -208.6130
  31   1.0000      -7.666274      -208.6099
  32   1.0000      -5.699997      -155.1048
  33   1.0000      -5.699973      -155.1042
  34   1.0000      -5.696182      -155.0010
  35   1.0000      -5.696167      -155.0006
  36   1.0000      -5.690716      -154.8523
  37   1.0000      -5.690708      -154.8520
  38   1.0000      -5.689520      -154.8197
  39   1.0000      -5.689494      -154.8190
  40   1.0000      -5.686836      -154.7467
  41   1.0000      -5.686832      -154.7466
  42   1.0000      -5.680120      -154.5639
  43   1.0000      -5.680112      -154.5637
  44   1.0000      -5.632112      -153.2576
  45   1.0000      -5.632066      -153.2563
  46   1.0000      -5.631222      -153.2333
  47   1.0000      -5.631118      -153.2305
  48   1.0000      -5.625962      -153.0902
  49   1.0000      -5.625914      -153.0889
  50   1.0000      -5.625051      -153.0654
  51   1.0000      -5.625011      -153.0643
  52   1.0000      -5.624960      -153.0629
  53   1.0000      -5.624914      -153.0617
  54   1.0000      -5.624373      -153.0470
  55   1.0000      -5.624251      -153.0437
  56   1.0000      -2.365388       -64.3655
  57   1.0000      -1.431882       -38.9635
  58   1.0000      -1.377929       -37.4954
  59   1.0000      -1.377373       -37.4802
  60   1.0000      -0.643815       -17.5191
  61   1.0000      -0.641971       -17.4689
  62   1.0000      -0.625512       -17.0210
  63   1.0000      -0.593030       -16.1372
  64   1.0000      -0.592570       -16.1246
  65   1.0000      -0.580059       -15.7842
  66   1.0000      -0.568216       -15.4620
  67   1.0000      -0.492403       -13.3990
  68   1.0000      -0.488160       -13.2835
  69   1.0000      -0.486935       -13.2502
  70   1.0000      -0.484171       -13.1750
  71   1.0000      -0.422278       -11.4908
  72   1.0000      -0.419509       -11.4154
  73   1.0000      -0.412481       -11.2242
  74   1.0000      -0.407183       -11.0800
  75   1.0000      -0.378599       -10.3022
  76   1.0000      -0.371378       -10.1057
  77   1.0000      -0.292501        -7.9594
  78   1.0000      -0.292213        -7.9515
  79   1.0000      -0.277882        -7.5615
  80   1.0000      -0.275827        -7.5056
  81   1.0000      -0.260262        -7.0821
  82   1.0000      -0.254330        -6.9207
  83   1.0000      -0.242210        -6.5909
  84   1.0000      -0.236928        -6.4471
  85   1.0000      -0.195410        -5.3174
  86   1.0000      -0.194560        -5.2942
  87   1.0000      -0.191492        -5.2108
  88   1.0000      -0.188246        -5.1224
  89   1.0000      -0.184411        -5.0181
  90   1.0000      -0.183076        -4.9818
  91   1.0000      -0.178331        -4.8526
  92   1.0000      -0.150392        -4.0924
  93   1.0000      -0.150145        -4.0856
  94   1.0000      -0.144936        -3.9439
  95   1.0000      -0.141763        -3.8576
  96   1.0000      -0.140056        -3.8111
  97   1.0000      -0.095794        -2.6067
  98   1.0000      -0.095513        -2.5990
  99   1.0000      -0.089288        -2.4297
 100   1.0000      -0.083512        -2.2725
 101   1.0000      -0.082819        -2.2536
 102   1.0000      -0.078181        -2.1274
 103   1.0000      -0.070156        -1.9091
 104   1.0000      -0.047017        -1.2794
 105   1.0000      -0.041310        -1.1241
 106   1.0000      -0.041166        -1.1202
 107   1.0000      -0.034039        -0.9263
 108   1.0000      -0.027977        -0.7613
 109   1.0000      -0.011995        -0.3264
 110   1.0000      -0.006340        -0.1725
 111   1.0000      -0.000869        -0.0237
 112   1.0000       0.009860         0.2683
 113   1.0000       0.015649         0.4258
 114   1.0000       0.033276         0.9055
 115   1.0000       0.058128         1.5817
 116   0.0000       0.185255         5.0410
 117   0.0000       0.189447         5.1551
 118   0.0000       0.195819         5.3285
 119   0.0000       0.196277         5.3410
 120   0.0000       0.196580         5.3492

MULLIKEN ATOMIC CHARGES AND SPIN POPULATIONS
--------------------------------------------
   0 V :    0.445994    1.202261
   1 S :   -0.261955   -0.025865
   2 S :   -0.246485   -0.023637
   3 S :   -0.264152   -0.025774
   4 S :   -0.248652   -0.023496
   5 O :   -0.506755   -0.139866
   6 C :   -0.120363    0.007931
   7 C :   -0.117742    0.007812
   8 C :   -0.109996    0.010052
   9 C :   -0.109705    0.009931
  10 S :   -0.044185   -0.000580
  11 S :   -0.044230   -0.000578
  12 S :   -0.048287    0.000291
  13 S :   -0.048205    0.000225
  14 C :   -0.338132    0.000433
  15 C :   -0.330885    0.000097
  16 C :   -0.336669    0.000427
  17 C :   -0.329746    0.000149
  18 C :   -0.082767    0.000018
  19 H :    0.147682   -0.000164
  20 H :    0.100662    0.000046
  21 H :    0.043446   -0.000014
  22 H :    0.082729   -0.000005
  23 H :    0.100682    0.000045
  24 H :    0.149080   -0.000164
  25 C :   -0.099942    0.000319
  26 H :    0.101514    0.000018
  27 H :    0.144756   -0.000049
  28 H :    0.076570    0.000044
  29 H :    0.048345    0.000118
  30 H :    0.145675   -0.000040
  31 H :    0.101719    0.000014
Sum of atomic charges         :   -2.0000000

LOEWDIN ATOMIC CHARGES AND SPIN POPULATIONS
-------------------------------------------
   0 V :   -0.240624    1.156001
   1 S :    0.084002   -0.017146
   2 S :    0.090931   -0.016509
   3 S :    0.081605   -0.017090
   4 S :    0.088432   -0.016459
   5 O :   -0.352890   -0.125285
   6 C :   -0.547380    0.009376
   7 C :   -0.547102    0.009212
   8 C :   -0.549787    0.010595
   9 C :   -0.550140    0.010519
  10 S :    0.334336   -0.001359
  11 S :    0.334221   -0.001349
  12 S :    0.330658   -0.000551
  13 S :    0.330882   -0.000589
  14 C :   -0.292558    0.000150
  15 C :   -0.294399    0.000176
  16 C :   -0.292705    0.000151
  17 C :   -0.294723    0.000199
  18 C :   -0.184682   -0.000051
  19 H :    0.066414   -0.000047
  20 H :    0.047199    0.000006
  21 H :    0.047337   -0.000012
  22 H :    0.055093   -0.000006
  23 H :    0.047204    0.000006
  24 H :    0.066948   -0.000046
  25 C :   -0.185492    0.000003
  26 H :    0.047607    0.000012
  27 H :    0.065492   -0.000007
  28 H :    0.052776    0.000028
  29 H :    0.048078    0.000068
  30 H :    0.065789   -0.000004
  31 H :    0.047475    0.000008

  Mayer bond orders larger than 0.100000
B(  0-V ,  1-S ) :   0.7783 B(  0-V ,  2-S ) :   0.8030 B(  0-V ,  3-S ) :   0.7773
B(  0-V ,  4-S ) :   0.7976 B(  0-V ,  5-O ) :   2.1081 B(  1-S ,  8-C ) :   1.1453
B(  2-S ,  6-C ) :   1.1256 B(  3-S ,  9-C ) :   1.1445 B(  4-S ,  7-C ) :   1.1265
B(  6-C ,  7-C ) :   1.5463 B(  6-C , 10-S ) :   0.9597 B(  7-C , 11-S ) :   0.9592
B(  8-C ,  9-C ) :   1.4983 B(  8-C , 13-S ) :   0.9488 B(  9-C , 12-S ) :   0.9483
B( 10-S , 16-C ) :   1.0145 B( 11-S , 14-C ) :   1.0134 B( 12-S , 15-C ) :   0.9959
B( 13-S , 17-C ) :   0.9971 B( 14-C , 18-C ) :   0.8734 B( 14-C , 23-H ) :   0.9692
B( 14-C , 24-H ) :   0.9744 B( 15-C , 25-C ) :   0.8853 B( 15-C , 30-H ) :   0.9762
B( 15-C , 31-H ) :   0.9700 B( 16-C , 18-C ) :   0.8737 B( 16-C , 19-H ) :   0.9743
B( 16-C , 20-H ) :   0.9693 B( 17-C , 25-C ) :   0.8849 B( 17-C , 26-H ) :   0.9702
B( 17-C , 27-H ) :   0.9760 B( 18-C , 21-H ) :   0.9550 B( 18-C , 22-H ) :   0.9704
B( 25-C , 28-H ) :   0.9772 B( 25-C , 29-H ) :   0.9532

FINAL SINGLE POINT ENERGY     -4592.714040428482

DIPOLE MOMENT
-------------
                                X             Y             Z
Electronic contribution:     -5.41806       8.55336     -24.69401
Nuclear contribution   :      5.83530      -9.69223      27.51934
                        -----------------------------------------
Total Dipole Moment    :      0.41724      -1.13887       2.82533
                        -----------------------------------------
Magnitude (a.u.)       :      3.07467
Magnitude (Debye)      :      7.81519

Rotational constants in cm-1:     0.012743     0.002548     0.002430
Rotational constants in MHz :   382.030124    76.388822    72.851615

                             ****ORCA TERMINATED NORMALLY****
TOTAL RUN TIME: 0 days 0 hours 27 minutes 25 seconds 121 msec
