                         Program Version 5.0.4 -  RELEASE  -
|  1> ! nofrozencore ReducedPop printbasis
|  2> ! B3LYP TZVP
|  3>
|  4> %basis
|  5> newgto V "CP(PPP)" end
|  6> end
|  7>
|  8> %pal
|  9> nprocs 4
| 10> end
| 11>
| 12> % sym SymThresh 1e-2 end
| 13> * xyz -2 2
| 14> V 0.8921602275822145 -0.6430098898937038 -0.18892262210317273
| 15> S -0.834309481064895 -2.190380262325561 0.6446058340643791
| 16> S -0.33870776656783763 -0.6298523756887109 -2.3249822752156444
| 17> S 0.8825125562424201 0.170750737822034 2.1140307904422064
| 18> S 1.3677527816115247 1.6824226359348848 -0.76371747588611
| 19> O 2.238608469167597 -1.4836121608196762 -0.4016232395393467
| 20> C 0.22426180548104427 0.8471523883679672 -3.1232174113509665
| 21> C 0.978243927299559 1.7850258596717694 -2.4887926497743025
| 22> C -0.6904117236152146 -2.067221534286602 2.4045718386888373
| 23> C 0.06194515396810076 -1.1130627215066482 3.0161058180337577
| 24> S -0.3473133846043188 1.0608335243862863 -4.823599609836296
| 25> S 1.6808904186185132 3.214817528633357 -3.3392104546585855
| 26> S 0.31388008334942347 -1.0613935234111178 4.803221403382056
| 27> S -1.6880666413251895 -3.2503561802351673 3.33637091314817
| 28> C 0.2161399167685286 4.303966189365553 -3.6319934544134918
| 29> C -1.319693854504478 -0.4864371387736095 5.446469403206435
| 30> C -1.392923284805726 2.5858124859572915 -4.707577539519386
| 31> C -2.882146350690522 -2.151655725376772 4.227483566611782
| 32> C -0.6602629711506044 3.9251879682031583 -4.825245416339831
| 33> H -1.950081597420269 2.5246196761244635 -3.76671158965284
| 34> H -2.1128354233916533 2.4897661323945997 -5.531341075921032
| 35> H -1.4203331801261723 4.713993007457661 -4.950277979236615
| 36> H -0.04971621334672077 3.9216530285655167 -5.73641096124697
| 37> H 0.6370673575892195 5.307078838357633 -3.785133256027044
| 38> H -0.3691779800585162 4.324875997309812 -2.705922575858995
| 39> C -2.4025996736690836 -1.5589590131546616 5.554531706752069
| 40> H -3.7589024444287515 -2.7866770508588856 4.408228691571817
| 41> H -3.1783374487682554 -1.3634090149451177 3.52815403031921
| 42> H -2.045068677129692 -2.3693970316559416 6.200882421097824
| 43> H -3.27504885305645 -1.1090316311232062 6.056162405646816
| 44> H -1.648911742299199 0.3430935618842677 4.812034862545198
| 45> H -1.1022428140798866 -0.07991240340660388 6.442630017169388
| 46> *
| 47>
| 48> % eprnmr
| 49> gtensor true
| 50> Nuclei = all H {aiso,adip,aorb,fgrad,rho}
| 51> Nuclei = all V {aiso,adip,aorb,fgrad,rho}
| 52> end
| 53>
| 54>                          ****END OF INPUT****

CARTESIAN COORDINATES (ANGSTROEM)
---------------------------------
  V      0.893115   -0.643660   -0.189197
  S     -0.833355   -2.191030    0.644331
  S     -0.337753   -0.630502   -2.325257
  S      0.883467    0.170101    2.113756
  S      1.368707    1.681773   -0.763992
  O      2.239563   -1.484262   -0.401898
  C      0.225216    0.846503   -3.123492
  C      0.979198    1.784376   -2.489067
  C     -0.689457   -2.067871    2.404297
  C      0.062900   -1.113712    3.015831
  S     -0.346359    1.060184   -4.823874
  S      1.681845    3.214168   -3.339485
  S      0.314835   -1.062043    4.802947
  S     -1.687112   -3.251006    3.336096
  C      0.217094    4.303317   -3.632268
  C     -1.318739   -0.487087    5.446195
  C     -1.391969    2.585163   -4.707852
  C     -2.881192   -2.152305    4.227209
  C     -0.659308    3.924538   -4.825520
  H     -1.949127    2.523970   -3.766986
  H     -2.111881    2.489117   -5.531616
  H     -1.419379    4.713343   -4.950553
  H     -0.048762    3.921003   -5.736686
  H      0.638022    5.306429   -3.785408
  H     -0.368223    4.324226   -2.706197
  C     -2.401645   -1.559609    5.554257
  H     -3.757948   -2.787327    4.407954
  H     -3.177383   -1.364059    3.527879
  H     -2.044114   -2.370047    6.200608
  H     -3.274094   -1.109681    6.055888
  H     -1.647957    0.342444    4.811760
  H     -1.101288   -0.080562    6.442355

 Total Charge           Charge          ....   -2
 Multiplicity           Mult            ....    2
 Number of Electrons    NEL             ....  233
 Basis Dimension        Dim             ....  517

ORBITAL ENERGIES
----------------
                 SPIN UP ORBITALS
  NO   OCC          E(Eh)            E(eV)
   0   1.0000    -196.641220     -5350.8796
   1   1.0000     -88.677873     -2413.0476
   2   1.0000     -88.677632     -2413.0411
   3   1.0000     -88.675889     -2412.9936
   4   1.0000     -88.675854     -2412.9927
   5   1.0000     -88.613134     -2411.2860
   6   1.0000     -88.613076     -2411.2844
   7   1.0000     -88.611443     -2411.2399
   8   1.0000     -88.611375     -2411.2381
   9   1.0000     -22.016933      -599.1112
  10   1.0000     -18.856920      -513.1229
  11   1.0000     -18.523771      -504.0574
  12   1.0000     -18.517981      -503.8999
  13   1.0000     -18.517951      -503.8991
  14   1.0000     -10.016750      -272.5696
  15   1.0000     -10.016401      -272.5601
  16   1.0000     -10.016199      -272.5546
  17   1.0000     -10.015888      -272.5462
  18   1.0000     -10.005225      -272.2560
  19   1.0000     -10.005021      -272.2505
  20   1.0000      -9.993357      -271.9331
  21   1.0000      -9.993151      -271.9275
  22   1.0000      -9.990773      -271.8628
  23   1.0000      -9.990747      -271.8620
  24   1.0000      -7.731364      -210.3811
  25   1.0000      -7.731153      -210.3754
  26   1.0000      -7.729455      -210.3292
  27   1.0000      -7.729450      -210.3290
  28   1.0000      -7.667405      -208.6407
  29   1.0000      -7.667333      -208.6388
  30   1.0000      -7.665887      -208.5994
  31   1.0000      -7.665827      -208.5977
  32   1.0000      -5.696589      -155.0121
  33   1.0000      -5.696379      -155.0064
  34   1.0000      -5.694744      -154.9619
  35   1.0000      -5.694732      -154.9615
  36   1.0000      -5.692709      -154.9065
  37   1.0000      -5.692493      -154.9006
  38   1.0000      -5.690844      -154.8557
  39   1.0000      -5.690838      -154.8556
  40   1.0000      -5.686171      -154.7286
  41   1.0000      -5.685962      -154.7229
  42   1.0000      -5.684142      -154.6734
  43   1.0000      -5.684136      -154.6732
  44   1.0000      -5.632277      -153.2620
  45   1.0000      -5.632200      -153.2600
  46   1.0000      -5.630733      -153.2200
  47   1.0000      -5.630674      -153.2184
  48   1.0000      -5.625821      -153.0864
  49   1.0000      -5.625757      -153.0846
  50   1.0000      -5.625402      -153.0750
  51   1.0000      -5.625350      -153.0736
  52   1.0000      -5.624464      -153.0495
  53   1.0000      -5.624403      -153.0478
  54   1.0000      -5.623719      -153.0292
  55   1.0000      -5.623637      -153.0270
  56   1.0000      -2.410320       -65.5882
  57   1.0000      -1.451166       -39.4882
  58   1.0000      -1.440136       -39.1881
  59   1.0000      -1.439083       -39.1594
  60   1.0000      -0.643067       -17.4987
  61   1.0000      -0.642841       -17.4926
  62   1.0000      -0.617651       -16.8071
  63   1.0000      -0.593257       -16.1433
  64   1.0000      -0.592816       -16.1314
  65   1.0000      -0.574947       -15.6451
  66   1.0000      -0.574622       -15.6363
  67   1.0000      -0.490950       -13.3594
  68   1.0000      -0.489074       -13.3084
  69   1.0000      -0.486941       -13.2503
  70   1.0000      -0.485713       -13.2169
  71   1.0000      -0.423050       -11.5118
  72   1.0000      -0.420149       -11.4328
  73   1.0000      -0.412267       -11.2183
  74   1.0000      -0.407075       -11.0771
  75   1.0000      -0.376189       -10.2366
  76   1.0000      -0.373014       -10.1502
  77   1.0000      -0.292207        -7.9513
  78   1.0000      -0.292019        -7.9462
  79   1.0000      -0.277459        -7.5501
  80   1.0000      -0.277197        -7.5429
  81   1.0000      -0.260285        -7.0827
  82   1.0000      -0.255387        -6.9494
  83   1.0000      -0.241415        -6.5692
  84   1.0000      -0.238620        -6.4932
  85   1.0000      -0.195100        -5.3089
  86   1.0000      -0.192574        -5.2402
  87   1.0000      -0.192215        -5.2304
  88   1.0000      -0.191129        -5.2009
  89   1.0000      -0.184040        -5.0080
  90   1.0000      -0.183882        -5.0037
  91   1.0000      -0.180753        -4.9185
  92   1.0000      -0.150632        -4.0989
  93   1.0000      -0.150437        -4.0936
  94   1.0000      -0.144806        -3.9404
  95   1.0000      -0.142516        -3.8781
  96   1.0000      -0.140463        -3.8222
  97   1.0000      -0.097300        -2.6477
  98   1.0000      -0.096124        -2.6157
  99   1.0000      -0.089299        -2.4300
 100   1.0000      -0.082764        -2.2521
 101   1.0000      -0.081348        -2.2136
 102   1.0000      -0.079077        -2.1518
 103   1.0000      -0.068590        -1.8664
 104   1.0000      -0.050000        -1.3606
 105   1.0000      -0.038538        -1.0487
 106   1.0000      -0.037498        -1.0204
 107   1.0000      -0.037357        -1.0165
 108   1.0000      -0.030811        -0.8384
 109   1.0000      -0.013849        -0.3769
 110   1.0000      -0.003811        -0.1037
 111   1.0000      -0.003413        -0.0929
 112   1.0000       0.007009         0.1907
 113   1.0000       0.009837         0.2677
 114   1.0000       0.015809         0.4302
 115   1.0000       0.033598         0.9143
 116   1.0000       0.059731         1.6254
 117   0.0000       0.187380         5.0989
 118   0.0000       0.194389         5.2896
 119   0.0000       0.196217         5.3393
 120   0.0000       0.196866         5.3570
 121   0.0000       0.210369         5.7244

                 SPIN DOWN ORBITALS
  NO   OCC          E(Eh)            E(eV)
   0   1.0000    -196.641361     -5350.8835
   1   1.0000     -88.677887     -2413.0480
   2   1.0000     -88.677647     -2413.0414
   3   1.0000     -88.675901     -2412.9939
   4   1.0000     -88.675866     -2412.9930
   5   1.0000     -88.613292     -2411.2903
   6   1.0000     -88.613234     -2411.2887
   7   1.0000     -88.611608     -2411.2444
   8   1.0000     -88.611539     -2411.2426
   9   1.0000     -22.002194      -598.7101
  10   1.0000     -18.860569      -513.2222
  11   1.0000     -18.518588      -503.9164
  12   1.0000     -18.502418      -503.4764
  13   1.0000     -18.501764      -503.4586
  14   1.0000     -10.016747      -272.5695
  15   1.0000     -10.016397      -272.5600
  16   1.0000     -10.016195      -272.5545
  17   1.0000     -10.015884      -272.5461
  18   1.0000     -10.005224      -272.2560
  19   1.0000     -10.005021      -272.2505
  20   1.0000      -9.993113      -271.9264
  21   1.0000      -9.992905      -271.9208
  22   1.0000      -9.990514      -271.8557
  23   1.0000      -9.990489      -271.8550
  24   1.0000      -7.731379      -210.3815
  25   1.0000      -7.731168      -210.3758
  26   1.0000      -7.729468      -210.3295
  27   1.0000      -7.729462      -210.3294
  28   1.0000      -7.667552      -208.6447
  29   1.0000      -7.667481      -208.6428
  30   1.0000      -7.666041      -208.6036
  31   1.0000      -7.665980      -208.6019
  32   1.0000      -5.696606      -155.0125
  33   1.0000      -5.696397      -155.0068
  34   1.0000      -5.694760      -154.9623
  35   1.0000      -5.694748      -154.9620
  36   1.0000      -5.692729      -154.9070
  37   1.0000      -5.692514      -154.9012
  38   1.0000      -5.690863      -154.8563
  39   1.0000      -5.690857      -154.8561
  40   1.0000      -5.686189      -154.7291
  41   1.0000      -5.685981      -154.7234
  42   1.0000      -5.684156      -154.6737
  43   1.0000      -5.684151      -154.6736
  44   1.0000      -5.632445      -153.2666
  45   1.0000      -5.632369      -153.2645
  46   1.0000      -5.630908      -153.2248
  47   1.0000      -5.630850      -153.2232
  48   1.0000      -5.626192      -153.0965
  49   1.0000      -5.626136      -153.0949
  50   1.0000      -5.625552      -153.0791
  51   1.0000      -5.625494      -153.0775
  52   1.0000      -5.624860      -153.0602
  53   1.0000      -5.624794      -153.0584
  54   1.0000      -5.623868      -153.0332
  55   1.0000      -5.623789      -153.0311
  56   1.0000      -2.365927       -64.3801
  57   1.0000      -1.432125       -38.9701
  58   1.0000      -1.378493       -37.5107
  59   1.0000      -1.377891       -37.4943
  60   1.0000      -0.643018       -17.4974
  61   1.0000      -0.642792       -17.4912
  62   1.0000      -0.625533       -17.0216
  63   1.0000      -0.593075       -16.1384
  64   1.0000      -0.592613       -16.1258
  65   1.0000      -0.574941       -15.6449
  66   1.0000      -0.574616       -15.6361
  67   1.0000      -0.490978       -13.3602
  68   1.0000      -0.489114       -13.3095
  69   1.0000      -0.486952       -13.2506
  70   1.0000      -0.485739       -13.2176
  71   1.0000      -0.423300       -11.5186
  72   1.0000      -0.420468       -11.4415
  73   1.0000      -0.412288       -11.2189
  74   1.0000      -0.407181       -11.0799
  75   1.0000      -0.376148       -10.2355
  76   1.0000      -0.373048       -10.1512
  77   1.0000      -0.292182        -7.9507
  78   1.0000      -0.292010        -7.9460
  79   1.0000      -0.277435        -7.5494
  80   1.0000      -0.277184        -7.5426
  81   1.0000      -0.260086        -7.0773
  82   1.0000      -0.255352        -6.9485
  83   1.0000      -0.241314        -6.5665
  84   1.0000      -0.238549        -6.4912
  85   1.0000      -0.194680        -5.2975
  86   1.0000      -0.192503        -5.2383
  87   1.0000      -0.192173        -5.2293
  88   1.0000      -0.191092        -5.1999
  89   1.0000      -0.183986        -5.0065
  90   1.0000      -0.183834        -5.0024
  91   1.0000      -0.178658        -4.8615
  92   1.0000      -0.150304        -4.0900
  93   1.0000      -0.149784        -4.0758
  94   1.0000      -0.144623        -3.9354
  95   1.0000      -0.142215        -3.8699
  96   1.0000      -0.140383        -3.8200
  97   1.0000      -0.096587        -2.6283
  98   1.0000      -0.094906        -2.5825
  99   1.0000      -0.089379        -2.4321
 100   1.0000      -0.082765        -2.2521
 101   1.0000      -0.081067        -2.2059
 102   1.0000      -0.081040        -2.2052
 103   1.0000      -0.069894        -1.9019
 104   1.0000      -0.045896        -1.2489
 105   1.0000      -0.038525        -1.0483
 106   1.0000      -0.036948        -1.0054
 107   1.0000      -0.036601        -0.9960
 108   1.0000      -0.030567        -0.8318
 109   1.0000      -0.013000        -0.3538
 110   1.0000      -0.005152        -0.1402
 111   1.0000      -0.002277        -0.0620
 112   1.0000       0.007750         0.2109
 113   1.0000       0.010871         0.2958
 114   1.0000       0.033859         0.9214
 115   1.0000       0.058927         1.6035
 116   0.0000       0.185076         5.0362
 117   0.0000       0.188761         5.1365
 118   0.0000       0.195174         5.3110
 119   0.0000       0.196268         5.3407
 120   0.0000       0.197099         5.3633

MULLIKEN ATOMIC CHARGES AND SPIN POPULATIONS
--------------------------------------------
   0 V :    0.451484    1.203798
   1 S :   -0.257590   -0.023359
   2 S :   -0.258022   -0.023255
   3 S :   -0.251474   -0.025947
   4 S :   -0.251962   -0.025858
   5 O :   -0.507944   -0.141364
   6 C :   -0.101718    0.008268
   7 C :   -0.130852    0.009524
   8 C :   -0.102560    0.008388
   9 C :   -0.129664    0.009415
  10 S :   -0.041590   -0.000349
  11 S :   -0.047272   -0.000028
  12 S :   -0.047132   -0.000069
  13 S :   -0.041963   -0.000377
  14 C :   -0.321938    0.000319
  15 C :   -0.323269    0.000330
  16 C :   -0.351006    0.000224
  17 C :   -0.350373    0.000267
  18 C :   -0.085818    0.000152
  19 H :    0.154533   -0.000081
  20 H :    0.099926    0.000009
  21 H :    0.044788    0.000033
  22 H :    0.078662    0.000016
  23 H :    0.100449    0.000041
  24 H :    0.139386   -0.000130
  25 C :   -0.085602    0.000150
  26 H :    0.100077    0.000017
  27 H :    0.154216   -0.000089
  28 H :    0.078525    0.000010
  29 H :    0.044860    0.000031
  30 H :    0.140282   -0.000131
  31 H :    0.100560    0.000044
Sum of atomic charges         :   -2.0000000

LOEWDIN ATOMIC CHARGES AND SPIN POPULATIONS
-------------------------------------------
   0 V :   -0.235436    1.157688
   1 S :    0.082943   -0.016060
   2 S :    0.082137   -0.016020
   3 S :    0.089070   -0.017522
   4 S :    0.088494   -0.017437
   5 O :   -0.354095   -0.126729
   6 C :   -0.546331    0.009526
   7 C :   -0.556987    0.010313
   8 C :   -0.546792    0.009596
   9 C :   -0.556674    0.010211
  10 S :    0.334035   -0.001150
  11 S :    0.336591   -0.000894
  12 S :    0.336813   -0.000925
  13 S :    0.334214   -0.001169
  14 C :   -0.294840    0.000172
  15 C :   -0.294766    0.000177
  16 C :   -0.292599    0.000151
  17 C :   -0.292766    0.000168
  18 C :   -0.185331   -0.000036
  19 H :    0.068900   -0.000025
  20 H :    0.047774    0.000011
  21 H :    0.046765    0.000018
  22 H :    0.053676    0.000012
  23 H :    0.047709    0.000003
  24 H :    0.064141   -0.000032
  25 C :   -0.185212   -0.000039
  26 H :    0.047661    0.000015
  27 H :    0.068660   -0.000026
  28 H :    0.053619    0.000010
  29 H :    0.046786    0.000018
  30 H :    0.064269   -0.000032
  31 H :    0.047576    0.000006

  Mayer bond orders larger than 0.100000
B(  0-V ,  1-S ) :   0.7795 B(  0-V ,  2-S ) :   0.7779 B(  0-V ,  3-S ) :   0.7971
B(  0-V ,  4-S ) :   0.7968 B(  0-V ,  5-O ) :   2.1067 B(  1-S ,  8-C ) :   1.1449
B(  2-S ,  6-C ) :   1.1455 B(  3-S ,  9-C ) :   1.1300 B(  4-S ,  7-C ) :   1.1285
B(  6-C ,  7-C ) :   1.5179 B(  6-C , 10-S ) :   0.9543 B(  7-C , 11-S ) :   0.9526
B(  8-C ,  9-C ) :   1.5184 B(  8-C , 13-S ) :   0.9542 B(  9-C , 12-S ) :   0.9529
B( 10-S , 16-C ) :   1.0021 B( 11-S , 14-C ) :   1.0075 B( 12-S , 15-C ) :   1.0074
B( 13-S , 17-C ) :   1.0027 B( 14-C , 18-C ) :   0.8794 B( 14-C , 23-H ) :   0.9684
B( 14-C , 24-H ) :   0.9748 B( 15-C , 25-C ) :   0.8788 B( 15-C , 30-H ) :   0.9749
B( 15-C , 31-H ) :   0.9686 B( 16-C , 18-C ) :   0.8792 B( 16-C , 19-H ) :   0.9748
B( 16-C , 20-H ) :   0.9712 B( 17-C , 25-C ) :   0.8788 B( 17-C , 26-H ) :   0.9711
B( 17-C , 27-H ) :   0.9748 B( 18-C , 21-H ) :   0.9529 B( 18-C , 22-H ) :   0.9734
B( 25-C , 28-H ) :   0.9737 B( 25-C , 29-H ) :   0.9529

FINAL SINGLE POINT ENERGY     -4592.722902851000

DIPOLE MOMENT
-------------
                                X             Y             Z
Electronic contribution:     20.71418     -16.09336      -4.98982
Nuclear contribution   :    -23.13592      17.90854       5.54091
                        -----------------------------------------
Total Dipole Moment    :     -2.42174       1.81518       0.55109
                        -----------------------------------------
Magnitude (a.u.)       :      3.07626
Magnitude (Debye)      :      7.81924

Rotational constants in cm-1:     0.012735     0.002548     0.002430
Rotational constants in MHz :   381.797812    76.379039    72.852169

                             ****ORCA TERMINATED NORMALLY****
TOTAL RUN TIME: 0 days 0 hours 43 minutes 22 seconds 377 msec
