                         Program Version 5.0.4 -  RELEASE  -
|  1> ! nofrozencore ReducedPop printbasis
|  2> ! B3LYP TZVP
|  3>
|  4> %basis
|  5> newgto V "CP(PPP)" end
|  6> end
|  7>
|  8> %pal
|  9> nprocs 4
| 10> end
| 11>
| 12> % sym SymThresh 1e-2 end
| 13> * xyz -2 2
| 14> V -0.4110379814529105 0.9973029380801924 0.27106048509093533
| 15> S -1.5375027854304006 0.23174540103756527 -1.8324658627141455
| 16> S -1.7482982144427837 -0.6411337190490484 1.3874419667825786
| 17> S 1.4500966982808259 1.3734041222646636 -1.186807135972596
| 18> S 1.295420657978952 0.36462541618790495 1.9974260070018053
| 19> O -1.0090452553322595 2.4271191213719474 0.6539178353173445
| 20> C -0.9280081094049633 -0.9657667577206991 2.9144024814914076
| 21> C 0.31771819082601094 -0.5010896655594603 3.1987212089847334
| 22> C -0.4742489981838906 0.8872780162223691 -3.0919961174825357
| 23> C 0.78972362089744 1.3089040008553348 -2.8209575330983867
| 24> S -1.9401880491160273 -1.9425710749649918 4.046330386505865
| 25> S 1.0873556153063553 -0.8299537958959472 4.800110286098501
| 26> S 1.9645161058585652 1.8834787293687765 -4.065459767809747
| 27> S -1.1102816784134433 0.8805565143914474 -4.78353468073173
| 28> C 1.3884985657231221 -2.6489654145095862 4.639413136715342
| 29> C 2.3025786438536806 0.41603282040691864 -5.1443998743992685
| 30> C -1.021543251769677 -3.5322092565994603 4.300081443063949
| 31> C -0.09696668053416659 -0.49054604904468907 -5.500683101330129
| 32> C 0.23871322586418575 -3.5072110816270703 5.170176047948346
| 33> H -0.7942315299533544 -3.9489369444162743 3.3034854568384615
| 34> H -1.7747780430434577 -4.187583797260505 4.77233852350115
| 35> H 0.592125256299127 -4.547265550337727 5.260025266046488
| 36> H -0.018750464929757633 -3.1693729893583056 6.181971054636937
| 37> H 2.312195189717333 -2.8717411541526303 5.201320831015921
| 38> H 1.5833876217165606 -2.840980163447839 3.571908996300811
| 39> C 1.2147554267791028 -0.019232574292413866 -6.1301908752492205
| 40> H -0.7227474694925117 -0.9808031390078801 -6.265362714627419
| 41> H 0.07510395041068281 -1.2124813310339762 -4.687324196115283
| 42> H 0.9995424017611583 0.8016347419638329 -6.825661804281407
| 43> H 1.6301904570515147 -0.8457820352991227 -6.729208559276229
| 44> H 2.586502192526149 -0.4224333159574384 -4.486576968288924
| 45> H 3.2021804572414223 0.7169764869209029 -5.708391339855623
| 46> *
| 47>
| 48> % eprnmr
| 49> gtensor true
| 50> Nuclei = all H {aiso,adip,aorb,fgrad,rho}
| 51> Nuclei = all V {aiso,adip,aorb,fgrad,rho}
| 52> end
| 53>
| 54>                          ****END OF INPUT****

CARTESIAN COORDINATES (ANGSTROEM)
---------------------------------
  V     -0.411488    0.998339    0.271425
  S     -1.537953    0.232781   -1.832101
  S     -1.748749   -0.640098    1.387807
  S      1.449646    1.374440   -1.186443
  S      1.294970    0.365661    1.997791
  O     -1.009496    2.428155    0.654282
  C     -0.928459   -0.964731    2.914767
  C      0.317268   -0.500054    3.199086
  C     -0.474699    0.888314   -3.091631
  C      0.789273    1.309940   -2.820593
  S     -1.940639   -1.941535    4.046695
  S      1.086905   -0.828918    4.800475
  S      1.964066    1.884515   -4.065095
  S     -1.110732    0.881592   -4.783170
  C      1.388048   -2.647930    4.639778
  C      2.302128    0.417069   -5.144035
  C     -1.021994   -3.531173    4.300446
  C     -0.097417   -0.489510   -5.500318
  C      0.238263   -3.506175    5.170541
  H     -0.794682   -3.947901    3.303850
  H     -1.775229   -4.186548    4.772703
  H      0.591675   -4.546230    5.260390
  H     -0.019201   -3.168337    6.182336
  H      2.311745   -2.870705    5.201685
  H      1.582937   -2.839944    3.572274
  C      1.214305   -0.018197   -6.129826
  H     -0.723198   -0.979767   -6.264998
  H      0.074653   -1.211446   -4.686960
  H      0.999092    0.802671   -6.825297
  H      1.629740   -0.844746   -6.728844
  H      2.586052   -0.421398   -4.486212
  H      3.201730    0.718012   -5.708027

 Total Charge           Charge          ....   -2
 Multiplicity           Mult            ....    2
 Number of Electrons    NEL             ....  233
 Basis Dimension        Dim             ....  517

ORBITAL ENERGIES
----------------
                 SPIN UP ORBITALS
  NO   OCC          E(Eh)            E(eV)
   0   1.0000    -196.639909     -5350.8440
   1   1.0000     -88.677288     -2413.0317
   2   1.0000     -88.677171     -2413.0285
   3   1.0000     -88.676474     -2413.0095
   4   1.0000     -88.676379     -2413.0069
   5   1.0000     -88.612435     -2411.2670
   6   1.0000     -88.612413     -2411.2664
   7   1.0000     -88.611473     -2411.2408
   8   1.0000     -88.611451     -2411.2402
   9   1.0000     -22.015738      -599.0787
  10   1.0000     -18.857216      -513.1309
  11   1.0000     -18.522548      -504.0242
  12   1.0000     -18.516816      -503.8682
  13   1.0000     -18.516730      -503.8659
  14   1.0000     -10.019590      -272.6469
  15   1.0000     -10.019176      -272.6356
  16   1.0000     -10.016010      -272.5495
  17   1.0000     -10.015794      -272.5436
  18   1.0000     -10.005610      -272.2665
  19   1.0000     -10.005433      -272.2617
  20   1.0000      -9.992284      -271.9039
  21   1.0000      -9.992216      -271.9020
  22   1.0000      -9.991280      -271.8766
  23   1.0000      -9.991258      -271.8759
  24   1.0000      -7.730659      -210.3619
  25   1.0000      -7.730574      -210.3596
  26   1.0000      -7.730153      -210.3482
  27   1.0000      -7.730074      -210.3460
  28   1.0000      -7.666557      -208.6176
  29   1.0000      -7.666512      -208.6164
  30   1.0000      -7.666310      -208.6109
  31   1.0000      -7.666293      -208.6104
  32   1.0000      -5.696008      -154.9962
  33   1.0000      -5.695923      -154.9939
  34   1.0000      -5.695311      -154.9773
  35   1.0000      -5.695235      -154.9752
  36   1.0000      -5.691903      -154.8845
  37   1.0000      -5.691811      -154.8821
  38   1.0000      -5.691669      -154.8782
  39   1.0000      -5.691582      -154.8758
  40   1.0000      -5.685437      -154.7086
  41   1.0000      -5.685355      -154.7064
  42   1.0000      -5.684849      -154.6926
  43   1.0000      -5.684769      -154.6904
  44   1.0000      -5.631326      -153.2362
  45   1.0000      -5.631274      -153.2348
  46   1.0000      -5.631245      -153.2340
  47   1.0000      -5.631232      -153.2336
  48   1.0000      -5.624911      -153.0616
  49   1.0000      -5.624908      -153.0615
  50   1.0000      -5.624883      -153.0608
  51   1.0000      -5.624827      -153.0593
  52   1.0000      -5.624589      -153.0528
  53   1.0000      -5.624560      -153.0521
  54   1.0000      -5.624140      -153.0406
  55   1.0000      -5.624120      -153.0401
  56   1.0000      -2.409601       -65.5686
  57   1.0000      -1.450971       -39.4829
  58   1.0000      -1.439495       -39.1707
  59   1.0000      -1.438344       -39.1393
  60   1.0000      -0.642625       -17.4867
  61   1.0000      -0.642483       -17.4828
  62   1.0000      -0.618287       -16.8244
  63   1.0000      -0.593325       -16.1452
  64   1.0000      -0.592877       -16.1330
  65   1.0000      -0.574345       -15.6287
  66   1.0000      -0.574097       -15.6220
  67   1.0000      -0.491086       -13.3631
  68   1.0000      -0.489261       -13.3135
  69   1.0000      -0.486452       -13.2370
  70   1.0000      -0.485366       -13.2075
  71   1.0000      -0.422614       -11.4999
  72   1.0000      -0.419864       -11.4251
  73   1.0000      -0.411582       -11.1997
  74   1.0000      -0.406299       -11.0560
  75   1.0000      -0.375847       -10.2273
  76   1.0000      -0.372841       -10.1455
  77   1.0000      -0.291033        -7.9194
  78   1.0000      -0.290847        -7.9144
  79   1.0000      -0.277530        -7.5520
  80   1.0000      -0.277249        -7.5443
  81   1.0000      -0.259238        -7.0542
  82   1.0000      -0.254262        -6.9188
  83   1.0000      -0.241178        -6.5628
  84   1.0000      -0.238794        -6.4979
  85   1.0000      -0.194534        -5.2935
  86   1.0000      -0.191649        -5.2150
  87   1.0000      -0.191363        -5.2072
  88   1.0000      -0.190596        -5.1864
  89   1.0000      -0.184386        -5.0174
  90   1.0000      -0.184083        -5.0092
  91   1.0000      -0.180631        -4.9152
  92   1.0000      -0.150666        -4.0998
  93   1.0000      -0.149485        -4.0677
  94   1.0000      -0.143478        -3.9042
  95   1.0000      -0.142600        -3.8803
  96   1.0000      -0.141259        -3.8439
  97   1.0000      -0.097592        -2.6556
  98   1.0000      -0.097445        -2.6516
  99   1.0000      -0.089020        -2.4223
 100   1.0000      -0.085157        -2.3172
 101   1.0000      -0.080536        -2.1915
 102   1.0000      -0.080379        -2.1872
 103   1.0000      -0.069778        -1.8988
 104   1.0000      -0.050351        -1.3701
 105   1.0000      -0.038045        -1.0352
 106   1.0000      -0.037955        -1.0328
 107   1.0000      -0.035610        -0.9690
 108   1.0000      -0.031806        -0.8655
 109   1.0000      -0.013724        -0.3735
 110   1.0000      -0.003711        -0.1010
 111   1.0000      -0.003590        -0.0977
 112   1.0000       0.006212         0.1690
 113   1.0000       0.010894         0.2964
 114   1.0000       0.016448         0.4476
 115   1.0000       0.034053         0.9266
 116   1.0000       0.059674         1.6238
 117   0.0000       0.187399         5.0994
 118   0.0000       0.194687         5.2977
 119   0.0000       0.195888         5.3304
 120   0.0000       0.196044         5.3346
 121   0.0000       0.209662         5.7052

                 SPIN DOWN ORBITALS
  NO   OCC          E(Eh)            E(eV)
   0   1.0000    -196.640050     -5350.8478
   1   1.0000     -88.677303     -2413.0321
   2   1.0000     -88.677186     -2413.0289
   3   1.0000     -88.676485     -2413.0098
   4   1.0000     -88.676391     -2413.0073
   5   1.0000     -88.612597     -2411.2714
   6   1.0000     -88.612576     -2411.2708
   7   1.0000     -88.611628     -2411.2450
   8   1.0000     -88.611606     -2411.2444
   9   1.0000     -22.001096      -598.6803
  10   1.0000     -18.860785      -513.2281
  11   1.0000     -18.517429      -503.8849
  12   1.0000     -18.501345      -503.4472
  13   1.0000     -18.500635      -503.4279
  14   1.0000     -10.019585      -272.6468
  15   1.0000     -10.019172      -272.6355
  16   1.0000     -10.016008      -272.5494
  17   1.0000     -10.015792      -272.5435
  18   1.0000     -10.005610      -272.2665
  19   1.0000     -10.005433      -272.2617
  20   1.0000      -9.991985      -271.8957
  21   1.0000      -9.991921      -271.8940
  22   1.0000      -9.991063      -271.8707
  23   1.0000      -9.991038      -271.8700
  24   1.0000      -7.730674      -210.3623
  25   1.0000      -7.730589      -210.3600
  26   1.0000      -7.730165      -210.3485
  27   1.0000      -7.730087      -210.3463
  28   1.0000      -7.666699      -208.6215
  29   1.0000      -7.666654      -208.6203
  30   1.0000      -7.666462      -208.6150
  31   1.0000      -7.666446      -208.6146
  32   1.0000      -5.696024      -154.9967
  33   1.0000      -5.695940      -154.9944
  34   1.0000      -5.695326      -154.9777
  35   1.0000      -5.695252      -154.9757
  36   1.0000      -5.691923      -154.8851
  37   1.0000      -5.691831      -154.8826
  38   1.0000      -5.691689      -154.8787
  39   1.0000      -5.691602      -154.8764
  40   1.0000      -5.685459      -154.7092
  41   1.0000      -5.685376      -154.7069
  42   1.0000      -5.684859      -154.6929
  43   1.0000      -5.684780      -154.6907
  44   1.0000      -5.631509      -153.2411
  45   1.0000      -5.631456      -153.2397
  46   1.0000      -5.631406      -153.2383
  47   1.0000      -5.631393      -153.2380
  48   1.0000      -5.625315      -153.0726
  49   1.0000      -5.625315      -153.0726
  50   1.0000      -5.625230      -153.0703
  51   1.0000      -5.625179      -153.0689
  52   1.0000      -5.624739      -153.0569
  53   1.0000      -5.624708      -153.0561
  54   1.0000      -5.624281      -153.0445
  55   1.0000      -5.624260      -153.0439
  56   1.0000      -2.365493       -64.3683
  57   1.0000      -1.432181       -38.9716
  58   1.0000      -1.378231       -37.5036
  59   1.0000      -1.377428       -37.4817
  60   1.0000      -0.642573       -17.4853
  61   1.0000      -0.642428       -17.4814
  62   1.0000      -0.625930       -17.0324
  63   1.0000      -0.593130       -16.1399
  64   1.0000      -0.592661       -16.1271
  65   1.0000      -0.574336       -15.6285
  66   1.0000      -0.574088       -15.6217
  67   1.0000      -0.491088       -13.3632
  68   1.0000      -0.489258       -13.3134
  69   1.0000      -0.486483       -13.2379
  70   1.0000      -0.485399       -13.2084
  71   1.0000      -0.422850       -11.5063
  72   1.0000      -0.420167       -11.4333
  73   1.0000      -0.411580       -11.1996
  74   1.0000      -0.406385       -11.0583
  75   1.0000      -0.375803       -10.2261
  76   1.0000      -0.372866       -10.1462
  77   1.0000      -0.291008        -7.9187
  78   1.0000      -0.290835        -7.9140
  79   1.0000      -0.277505        -7.5513
  80   1.0000      -0.277236        -7.5440
  81   1.0000      -0.259011        -7.0481
  82   1.0000      -0.254201        -6.9172
  83   1.0000      -0.241081        -6.5601
  84   1.0000      -0.238705        -6.4955
  85   1.0000      -0.194084        -5.2813
  86   1.0000      -0.191596        -5.2136
  87   1.0000      -0.191318        -5.2060
  88   1.0000      -0.190572        -5.1857
  89   1.0000      -0.184290        -5.0148
  90   1.0000      -0.184025        -5.0076
  91   1.0000      -0.178513        -4.8576
  92   1.0000      -0.149983        -4.0812
  93   1.0000      -0.149181        -4.0594
  94   1.0000      -0.143253        -3.8981
  95   1.0000      -0.142284        -3.8718
  96   1.0000      -0.141188        -3.8419
  97   1.0000      -0.097079        -2.6416
  98   1.0000      -0.095904        -2.6097
  99   1.0000      -0.089190        -2.4270
 100   1.0000      -0.084832        -2.3084
 101   1.0000      -0.082222        -2.2374
 102   1.0000      -0.080299        -2.1850
 103   1.0000      -0.071047        -1.9333
 104   1.0000      -0.046110        -1.2547
 105   1.0000      -0.038291        -1.0419
 106   1.0000      -0.037147        -1.0108
 107   1.0000      -0.034585        -0.9411
 108   1.0000      -0.031786        -0.8650
 109   1.0000      -0.012984        -0.3533
 110   1.0000      -0.004767        -0.1297
 111   1.0000      -0.002530        -0.0689
 112   1.0000       0.007001         0.1905
 113   1.0000       0.011810         0.3214
 114   1.0000       0.034319         0.9339
 115   1.0000       0.058882         1.6023
 116   0.0000       0.184900         5.0314
 117   0.0000       0.188682         5.1343
 118   0.0000       0.195273         5.3136
 119   0.0000       0.195993         5.3332
 120   0.0000       0.196345         5.3428

MULLIKEN ATOMIC CHARGES AND SPIN POPULATIONS
--------------------------------------------
   0 V :    0.447613    1.197695
   1 S :   -0.270995   -0.025819
   2 S :   -0.237399   -0.022011
   3 S :   -0.238808   -0.022121
   4 S :   -0.272296   -0.025567
   5 O :   -0.505433   -0.138565
   6 C :   -0.141935    0.010707
   7 C :   -0.086850    0.007172
   8 C :   -0.087803    0.007267
   9 C :   -0.140832    0.010665
  10 S :   -0.039988   -0.000155
  11 S :   -0.048402   -0.000076
  12 S :   -0.040121   -0.000157
  13 S :   -0.048613   -0.000140
  14 C :   -0.353694    0.000289
  15 C :   -0.323160    0.000218
  16 C :   -0.322555    0.000199
  17 C :   -0.351869    0.000337
  18 C :   -0.084999    0.000133
  19 H :    0.130441   -0.000086
  20 H :    0.096663    0.000041
  21 H :    0.045669    0.000037
  22 H :    0.079429    0.000011
  23 H :    0.100469   -0.000001
  24 H :    0.164169   -0.000101
  25 C :   -0.085185    0.000132
  26 H :    0.100480    0.000010
  27 H :    0.163029   -0.000111
  28 H :    0.079294    0.000006
  29 H :    0.045455    0.000034
  30 H :    0.131284   -0.000090
  31 H :    0.096941    0.000045
Sum of atomic charges         :   -2.0000000

LOEWDIN ATOMIC CHARGES AND SPIN POPULATIONS
-------------------------------------------
   0 V :   -0.244883    1.151418
   1 S :    0.065272   -0.018076
   2 S :    0.112200   -0.014140
   3 S :    0.110509   -0.014236
   4 S :    0.063667   -0.017934
   5 O :   -0.350276   -0.124012
   6 C :   -0.552985    0.012312
   7 C :   -0.551552    0.007939
   8 C :   -0.551267    0.007994
   9 C :   -0.552876    0.012211
  10 S :    0.336993   -0.001117
  11 S :    0.331610   -0.000857
  12 S :    0.337097   -0.001116
  13 S :    0.331859   -0.000897
  14 C :   -0.291317    0.000132
  15 C :   -0.297366    0.000176
  16 C :   -0.297603    0.000169
  17 C :   -0.291463    0.000149
  18 C :   -0.186010   -0.000039
  19 H :    0.061345   -0.000034
  20 H :    0.049542    0.000026
  21 H :    0.046647    0.000015
  22 H :    0.053686    0.000010
  23 H :    0.047120   -0.000015
  24 H :    0.074135   -0.000023
  25 C :   -0.185943   -0.000042
  26 H :    0.047046   -0.000010
  27 H :    0.073573   -0.000024
  28 H :    0.053678    0.000009
  29 H :    0.046640    0.000016
  30 H :    0.061573   -0.000034
  31 H :    0.049346    0.000030

  Mayer bond orders larger than 0.100000
B(  0-V ,  1-S ) :   0.7553 B(  0-V ,  2-S ) :   0.8246 B(  0-V ,  3-S ) :   0.8227
B(  0-V ,  4-S ) :   0.7530 B(  0-V ,  5-O ) :   2.1084 B(  1-S ,  8-C ) :   1.1371
B(  2-S ,  6-C ) :   1.1319 B(  3-S ,  9-C ) :   1.1322 B(  4-S ,  7-C ) :   1.1372
B(  6-C ,  7-C ) :   1.5189 B(  6-C , 10-S ) :   0.9688 B(  7-C , 11-S ) :   0.9383
B(  8-C ,  9-C ) :   1.5194 B(  8-C , 13-S ) :   0.9388 B(  9-C , 12-S ) :   0.9681
B( 10-S , 16-C ) :   1.0187 B( 11-S , 14-C ) :   0.9869 B( 12-S , 15-C ) :   1.0186
B( 13-S , 17-C ) :   0.9880 B( 14-C , 18-C ) :   0.8770 B( 14-C , 23-H ) :   0.9657
B( 14-C , 24-H ) :   0.9761 B( 15-C , 25-C ) :   0.8785 B( 15-C , 30-H ) :   0.9721
B( 15-C , 31-H ) :   0.9711 B( 16-C , 18-C ) :   0.8784 B( 16-C , 19-H ) :   0.9719
B( 16-C , 20-H ) :   0.9710 B( 17-C , 25-C ) :   0.8773 B( 17-C , 26-H ) :   0.9660
B( 17-C , 27-H ) :   0.9759 B( 18-C , 21-H ) :   0.9525 B( 18-C , 22-H ) :   0.9736
B( 25-C , 28-H ) :   0.9737 B( 25-C , 29-H ) :   0.9524

FINAL SINGLE POINT ENERGY     -4592.718607056852

DIPOLE MOMENT
-------------
                                X             Y             Z
Electronic contribution:     -9.84771      23.93210       6.52304
Nuclear contribution   :     10.97108     -26.66212      -7.26685
                        -----------------------------------------
Total Dipole Moment    :      1.12337      -2.73002      -0.74382
                        -----------------------------------------
Magnitude (a.u.)       :      3.04437
Magnitude (Debye)      :      7.73818

Rotational constants in cm-1:     0.012759     0.002549     0.002431
Rotational constants in MHz :   382.518044    76.409646    72.873810

                             ****ORCA TERMINATED NORMALLY****
TOTAL RUN TIME: 0 days 0 hours 42 minutes 49 seconds 716 msec
