                         Program Version 5.0.4 -  RELEASE  -
|  1> ! nofrozencore ReducedPop printbasis
|  2> ! B3LYP TZVP
|  3>
|  4> %basis
|  5> newgto V "CP(PPP)" end
|  6> end
|  7>
|  8> %pal
|  9> nprocs 8
| 10> end
| 11>
| 12> % sym SymThresh 1e-2 end
| 13> * xyz -2 2
| 14> V -0.9583868082841193 -0.3015431342076177 -0.48444981174547425
| 15> S 0.3940553012324016 -2.3238150772193062 -0.1896639267437803
| 16> S -1.2824709995169947 -0.3774166404944833 1.9418645560133017
| 17> S 0.6621660310674133 0.18400032505983002 -2.2556525018070284
| 18> S -1.0421151979878083 2.123157198004463 -0.13637252547954543
| 19> O -2.328025037359893 -0.7385710394797252 -1.1789678336143468
| 20> C -1.8141739266932426 1.2572684959822304 2.3559814050840897
| 21> C -1.712492431410378 2.299975256738376 1.4899259270854415
| 22> C 1.3598067830618663 -2.409407142414727 -1.6678621680800958
| 23> C 1.4717101090275713 -1.3639532950546551 -2.5295244866596174
| 24> S -2.472850959783592 1.438090857613115 4.0258291082338475
| 25> S -2.2205946031145603 3.976676335337925 1.920939933244873
| 26> S 2.4860447656274776 -1.4339600128106191 -4.019962638633522
| 27> S 2.213342948648396 -3.9785652435177314 -1.9241769317607245
| 28> C -1.0225298143104813 4.481892320712239 3.227517189756366
| 29> C 4.202457214480621 -1.5328687373280352 -3.3463538005039353
| 30> C -1.1718288520599105 2.4696054438832746 4.844407724311822
| 31> C 3.9893880946024267 -3.522577828339529 -1.709003332080773
| 32> C -1.3009703512022117 3.9845884909016127 4.639757052550618
| 33> H -0.5057319253043578 2.212016787201958 4.6489922006169975
| 34> H -1.3345580923274043 2.2232999313234183 6.092447830782199
| 35> H -0.5872480129576302 4.476258626055194 5.3204734706828285
| 36> H -2.301181906219866 4.325245762513247 4.926666345108881
| 37> H -0.9889080033931069 5.386073104609845 3.2016817620852835
| 38> H 0.2680567056921149 3.999713192812089 2.7860996623992866
| 39> C 4.683873808782094 -2.9221336766085915 -2.930447144080929
| 40> H 4.484932895575716 -4.458567721910288 -1.4324641351561023
| 41> H 4.047284872374835 -2.848504903105194 -0.8516004627132863
| 42> H 4.578227394805788 -3.608085832197476 -3.7779356218090383
| 43> H 5.760694226906108 -2.853140272945063 -2.7062568135732437
| 44> H 4.2620997550019 -0.8296440720275524 -2.512911848054221
| 45> H 4.8397449218117155 -1.152764073971752 -4.151025909601475
| 46> *
| 47>
| 48> % eprnmr
| 49> gtensor true
| 50> Nuclei = all H {aiso,adip,aorb,fgrad,rho}
| 51> Nuclei = all V {aiso,adip,aorb,fgrad,rho}
| 52> end
| 53>
| 54>                          ****END OF INPUT****

CARTESIAN COORDINATES (ANGSTROEM)
---------------------------------
  V     -0.959446   -0.301821   -0.484908
  S      0.392996   -2.324093   -0.190122
  S     -1.283530   -0.377694    1.941406
  S      0.661107    0.183723   -2.256111
  S     -1.043174    2.122879   -0.136831
  O     -2.329084   -0.738849   -1.179426
  C     -1.815233    1.256991    2.355523
  C     -1.713551    2.299697    1.489468
  C      1.358748   -2.409685   -1.668320
  C      1.470651   -1.364231   -2.529983
  S     -2.473910    1.437813    4.025371
  S     -2.221653    3.976399    1.920482
  S      2.484986   -1.434238   -4.020421
  S      2.212284   -3.978843   -1.924635
  C     -1.023589    4.481615    3.227059
  C      4.201398   -1.533147   -3.346812
  C     -1.172888    2.469328    4.843950
  C      3.988329   -3.522856   -1.709462
  C     -1.302029    3.984311    4.639299
  H     -0.506791    2.211739    4.648534
  H     -1.335617    2.223022    6.091990
  H     -0.588307    4.475981    5.320015
  H     -2.302241    4.324968    4.926208
  H     -0.989967    5.385795    3.201224
  H      0.266998    3.999435    2.785641
  C      4.682815   -2.922411   -2.930905
  H      4.483874   -4.458846   -1.432922
  H      4.046226   -2.848783   -0.852059
  H      4.577169   -3.608364   -3.778394
  H      5.759635   -2.853418   -2.706715
  H      4.261041   -0.829922   -2.513370
  H      4.838686   -1.153042   -4.151484

 Total Charge           Charge          ....   -2
 Multiplicity           Mult            ....    2
 Number of Electrons    NEL             ....  233
 Basis Dimension        Dim             ....  517

ORBITAL ENERGIES
----------------
                 SPIN UP ORBITALS
  NO   OCC          E(Eh)            E(eV)
   0   1.0000    -196.640613     -5350.8631
   1   1.0000     -88.680387     -2413.1160
   2   1.0000     -88.677840     -2413.0467
   3   1.0000     -88.676615     -2413.0134
   4   1.0000     -88.676579     -2413.0124
   5   1.0000     -88.613253     -2411.2892
   6   1.0000     -88.612418     -2411.2665
   7   1.0000     -88.612214     -2411.2609
   8   1.0000     -88.612206     -2411.2607
   9   1.0000     -22.016441      -599.0978
  10   1.0000     -18.857632      -513.1423
  11   1.0000     -18.523265      -504.0437
  12   1.0000     -18.517490      -503.8865
  13   1.0000     -18.517453      -503.8855
  14   1.0000     -10.023993      -272.7667
  15   1.0000     -10.015397      -272.5328
  16   1.0000     -10.015372      -272.5321
  17   1.0000     -10.007840      -272.3272
  18   1.0000     -10.004669      -272.2409
  19   1.0000     -10.002878      -272.1921
  20   1.0000      -9.993459      -271.9358
  21   1.0000      -9.992397      -271.9069
  22   1.0000      -9.992031      -271.8970
  23   1.0000      -9.991319      -271.8776
  24   1.0000      -7.733883      -210.4497
  25   1.0000      -7.731368      -210.3812
  26   1.0000      -7.730260      -210.3511
  27   1.0000      -7.730240      -210.3505
  28   1.0000      -7.667647      -208.6473
  29   1.0000      -7.666862      -208.6259
  30   1.0000      -7.666684      -208.6211
  31   1.0000      -7.666628      -208.6196
  32   1.0000      -5.699143      -155.0816
  33   1.0000      -5.696628      -155.0131
  34   1.0000      -5.695497      -154.9824
  35   1.0000      -5.695487      -154.9821
  36   1.0000      -5.695163      -154.9733
  37   1.0000      -5.692802      -154.9090
  38   1.0000      -5.691619      -154.8768
  39   1.0000      -5.691590      -154.8760
  40   1.0000      -5.688744      -154.7986
  41   1.0000      -5.686021      -154.7245
  42   1.0000      -5.685012      -154.6970
  43   1.0000      -5.684993      -154.6965
  44   1.0000      -5.632537      -153.2691
  45   1.0000      -5.631698      -153.2463
  46   1.0000      -5.631509      -153.2412
  47   1.0000      -5.631479      -153.2403
  48   1.0000      -5.626064      -153.0930
  49   1.0000      -5.625612      -153.0807
  50   1.0000      -5.625306      -153.0723
  51   1.0000      -5.625123      -153.0674
  52   1.0000      -5.625067      -153.0659
  53   1.0000      -5.624843      -153.0598
  54   1.0000      -5.624650      -153.0545
  55   1.0000      -5.624616      -153.0536
  56   1.0000      -2.410122       -65.5827
  57   1.0000      -1.451477       -39.4967
  58   1.0000      -1.439909       -39.1819
  59   1.0000      -1.438826       -39.1525
  60   1.0000      -0.652930       -17.7671
  61   1.0000      -0.643904       -17.5215
  62   1.0000      -0.618714       -16.8361
  63   1.0000      -0.597698       -16.2642
  64   1.0000      -0.593743       -16.1566
  65   1.0000      -0.588272       -16.0077
  66   1.0000      -0.575987       -15.6734
  67   1.0000      -0.500303       -13.6139
  68   1.0000      -0.492659       -13.4059
  69   1.0000      -0.490356       -13.3433
  70   1.0000      -0.487143       -13.2558
  71   1.0000      -0.436357       -11.8739
  72   1.0000      -0.423467       -11.5231
  73   1.0000      -0.421233       -11.4623
  74   1.0000      -0.410169       -11.1613
  75   1.0000      -0.385777       -10.4975
  76   1.0000      -0.374551       -10.1920
  77   1.0000      -0.294703        -8.0193
  78   1.0000      -0.292857        -7.9690
  79   1.0000      -0.283974        -7.7273
  80   1.0000      -0.277720        -7.5571
  81   1.0000      -0.260255        -7.0819
  82   1.0000      -0.255408        -6.9500
  83   1.0000      -0.244299        -6.6477
  84   1.0000      -0.240344        -6.5401
  85   1.0000      -0.199767        -5.4359
  86   1.0000      -0.194404        -5.2900
  87   1.0000      -0.192259        -5.2316
  88   1.0000      -0.186710        -5.0806
  89   1.0000      -0.184574        -5.0225
  90   1.0000      -0.179487        -4.8841
  91   1.0000      -0.177476        -4.8294
  92   1.0000      -0.154809        -4.2126
  93   1.0000      -0.151251        -4.1158
  94   1.0000      -0.146378        -3.9831
  95   1.0000      -0.142906        -3.8887
  96   1.0000      -0.130711        -3.5568
  97   1.0000      -0.098098        -2.6694
  98   1.0000      -0.096662        -2.6303
  99   1.0000      -0.090261        -2.4561
 100   1.0000      -0.084181        -2.2907
 101   1.0000      -0.082111        -2.2344
 102   1.0000      -0.080705        -2.1961
 103   1.0000      -0.070370        -1.9149
 104   1.0000      -0.050673        -1.3789
 105   1.0000      -0.038909        -1.0588
 106   1.0000      -0.038699        -1.0531
 107   1.0000      -0.036465        -0.9922
 108   1.0000      -0.032686        -0.8894
 109   1.0000      -0.013799        -0.3755
 110   1.0000      -0.004903        -0.1334
 111   1.0000      -0.004072        -0.1108
 112   1.0000       0.005718         0.1556
 113   1.0000       0.009975         0.2714
 114   1.0000       0.015738         0.4282
 115   1.0000       0.033076         0.9000
 116   1.0000       0.059282         1.6131
 117   0.0000       0.184672         5.0252
 118   0.0000       0.187041         5.0896
 119   0.0000       0.192917         5.2495
 120   0.0000       0.196468         5.3462
 121   0.0000       0.206181         5.6105

                 SPIN DOWN ORBITALS
  NO   OCC          E(Eh)            E(eV)
   0   1.0000    -196.640754     -5350.8670
   1   1.0000     -88.680400     -2413.1164
   2   1.0000     -88.677853     -2413.0471
   3   1.0000     -88.676628     -2413.0137
   4   1.0000     -88.676593     -2413.0128
   5   1.0000     -88.613410     -2411.2935
   6   1.0000     -88.612579     -2411.2709
   7   1.0000     -88.612374     -2411.2653
   8   1.0000     -88.612367     -2411.2651
   9   1.0000     -22.001770      -598.6986
  10   1.0000     -18.861211      -513.2397
  11   1.0000     -18.518133      -503.9040
  12   1.0000     -18.502001      -503.4650
  13   1.0000     -18.501315      -503.4464
  14   1.0000     -10.023989      -272.7666
  15   1.0000     -10.015393      -272.5327
  16   1.0000     -10.015368      -272.5320
  17   1.0000     -10.007840      -272.3272
  18   1.0000     -10.004669      -272.2409
  19   1.0000     -10.002874      -272.1920
  20   1.0000      -9.993204      -271.9289
  21   1.0000      -9.992144      -271.9001
  22   1.0000      -9.991777      -271.8901
  23   1.0000      -9.991066      -271.8707
  24   1.0000      -7.733897      -210.4500
  25   1.0000      -7.731382      -210.3816
  26   1.0000      -7.730274      -210.3514
  27   1.0000      -7.730254      -210.3509
  28   1.0000      -7.667793      -208.6512
  29   1.0000      -7.667011      -208.6300
  30   1.0000      -7.666833      -208.6251
  31   1.0000      -7.666778      -208.6236
  32   1.0000      -5.699159      -155.0820
  33   1.0000      -5.696644      -155.0136
  34   1.0000      -5.695514      -154.9828
  35   1.0000      -5.695504      -154.9826
  36   1.0000      -5.695183      -154.9738
  37   1.0000      -5.692822      -154.9096
  38   1.0000      -5.691639      -154.8774
  39   1.0000      -5.691611      -154.8766
  40   1.0000      -5.688760      -154.7990
  41   1.0000      -5.686038      -154.7249
  42   1.0000      -5.685029      -154.6975
  43   1.0000      -5.685010      -154.6970
  44   1.0000      -5.632706      -153.2737
  45   1.0000      -5.631870      -153.2510
  46   1.0000      -5.631680      -153.2458
  47   1.0000      -5.631650      -153.2450
  48   1.0000      -5.626447      -153.1034
  49   1.0000      -5.625745      -153.0843
  50   1.0000      -5.625697      -153.0830
  51   1.0000      -5.625515      -153.0781
  52   1.0000      -5.625463      -153.0766
  53   1.0000      -5.624981      -153.0635
  54   1.0000      -5.624786      -153.0582
  55   1.0000      -5.624751      -153.0573
  56   1.0000      -2.365938       -64.3804
  57   1.0000      -1.432646       -38.9843
  58   1.0000      -1.378496       -37.5108
  59   1.0000      -1.377845       -37.4931
  60   1.0000      -0.652896       -17.7662
  61   1.0000      -0.643854       -17.5202
  62   1.0000      -0.626379       -17.0446
  63   1.0000      -0.597495       -16.2587
  64   1.0000      -0.593544       -16.1512
  65   1.0000      -0.588264       -16.0075
  66   1.0000      -0.575982       -15.6733
  67   1.0000      -0.500279       -13.6133
  68   1.0000      -0.492681       -13.4065
  69   1.0000      -0.490390       -13.3442
  70   1.0000      -0.487156       -13.2562
  71   1.0000      -0.436551       -11.8792
  72   1.0000      -0.423609       -11.5270
  73   1.0000      -0.421507       -11.4698
  74   1.0000      -0.410225       -11.1628
  75   1.0000      -0.385778       -10.4975
  76   1.0000      -0.374558       -10.1922
  77   1.0000      -0.294680        -8.0187
  78   1.0000      -0.292840        -7.9686
  79   1.0000      -0.283954        -7.7268
  80   1.0000      -0.277701        -7.5566
  81   1.0000      -0.260058        -7.0765
  82   1.0000      -0.255367        -6.9489
  83   1.0000      -0.244213        -6.6454
  84   1.0000      -0.240264        -6.5379
  85   1.0000      -0.199680        -5.4336
  86   1.0000      -0.194020        -5.2796
  87   1.0000      -0.192223        -5.2307
  88   1.0000      -0.185988        -5.0610
  89   1.0000      -0.184499        -5.0205
  90   1.0000      -0.178614        -4.8603
  91   1.0000      -0.176815        -4.8114
  92   1.0000      -0.154559        -4.2058
  93   1.0000      -0.150580        -4.0975
  94   1.0000      -0.146145        -3.9768
  95   1.0000      -0.142708        -3.8833
  96   1.0000      -0.130510        -3.5513
  97   1.0000      -0.096774        -2.6333
  98   1.0000      -0.095973        -2.6115
  99   1.0000      -0.090370        -2.4591
 100   1.0000      -0.084172        -2.2904
 101   1.0000      -0.082588        -2.2473
 102   1.0000      -0.081655        -2.2220
 103   1.0000      -0.071684        -1.9506
 104   1.0000      -0.046553        -1.2668
 105   1.0000      -0.039134        -1.0649
 106   1.0000      -0.037874        -1.0306
 107   1.0000      -0.035444        -0.9645
 108   1.0000      -0.032652        -0.8885
 109   1.0000      -0.012893        -0.3508
 110   1.0000      -0.006192        -0.1685
 111   1.0000      -0.003087        -0.0840
 112   1.0000       0.006539         0.1779
 113   1.0000       0.010879         0.2960
 114   1.0000       0.033332         0.9070
 115   1.0000       0.058489         1.5916
 116   0.0000       0.183950         5.0055
 117   0.0000       0.185952         5.0600
 118   0.0000       0.187691         5.1073
 119   0.0000       0.193611         5.2684
 120   0.0000       0.196664         5.3515

MULLIKEN ATOMIC CHARGES AND SPIN POPULATIONS
--------------------------------------------
   0 V :    0.447048    1.199223
   1 S :   -0.253113   -0.024324
   2 S :   -0.251741   -0.024203
   3 S :   -0.253938   -0.024260
   4 S :   -0.251054   -0.023515
   5 O :   -0.506087   -0.138846
   6 C :   -0.121612    0.008784
   7 C :   -0.102750    0.008895
   8 C :   -0.115873    0.008905
   9 C :   -0.116090    0.008907
  10 S :   -0.051681   -0.000208
  11 S :   -0.035990   -0.000097
  12 S :   -0.044736   -0.000194
  13 S :   -0.044803   -0.000226
  14 C :   -0.380470    0.000231
  15 C :   -0.338637    0.000299
  16 C :   -0.352585    0.000402
  17 C :   -0.338315    0.000318
  18 C :   -0.085136    0.000145
  19 H :    0.250745   -0.000137
  20 H :    0.030633   -0.000003
  21 H :    0.046677    0.000038
  22 H :    0.081017    0.000020
  23 H :    0.178381    0.000024
  24 H :    0.072526   -0.000202
  25 C :   -0.082989    0.000137
  26 H :    0.101671    0.000029
  27 H :    0.147054   -0.000109
  28 H :    0.078229    0.000012
  29 H :    0.044585    0.000035
  30 H :    0.147360   -0.000106
  31 H :    0.101673    0.000027
Sum of atomic charges         :   -2.0000000

LOEWDIN ATOMIC CHARGES AND SPIN POPULATIONS
-------------------------------------------
   0 V :   -0.242545    1.153234
   1 S :    0.088518   -0.016518
   2 S :    0.089058   -0.016376
   3 S :    0.088016   -0.016404
   4 S :    0.091130   -0.015907
   5 O :   -0.350729   -0.124287
   6 C :   -0.551395    0.009962
   7 C :   -0.550749    0.009963
   8 C :   -0.552540    0.009951
   9 C :   -0.552920    0.009994
  10 S :    0.342112   -0.001032
  11 S :    0.345181   -0.000977
  12 S :    0.336760   -0.001042
  13 S :    0.336743   -0.001059
  14 C :   -0.272054    0.000157
  15 C :   -0.293660    0.000169
  16 C :   -0.190603    0.000163
  17 C :   -0.293757    0.000179
  18 C :   -0.172996   -0.000034
  19 H :   -0.071350    0.000005
  20 H :    0.059894   -0.000006
  21 H :    0.048752    0.000017
  22 H :    0.055959    0.000015
  23 H :   -0.004049    0.000005
  24 H :    0.075204   -0.000124
  25 C :   -0.184786   -0.000039
  26 H :    0.047304    0.000010
  27 H :    0.065967   -0.000028
  28 H :    0.053391    0.000011
  29 H :    0.046818    0.000018
  30 H :    0.066033   -0.000027
  31 H :    0.047293    0.000009

  Mayer bond orders larger than 0.100000
B(  0-V ,  1-S ) :   0.7896 B(  0-V ,  2-S ) :   0.7914 B(  0-V ,  3-S ) :   0.7914
B(  0-V ,  4-S ) :   0.7841 B(  0-V ,  5-O ) :   2.1082 B(  1-S ,  8-C ) :   1.1380
B(  2-S ,  6-C ) :   1.1368 B(  3-S ,  9-C ) :   1.1365 B(  4-S ,  7-C ) :   1.1392
B(  6-C ,  7-C ) :   1.5164 B(  6-C , 10-S ) :   0.9558 B(  7-C , 11-S ) :   0.9463
B(  8-C ,  9-C ) :   1.5182 B(  8-C , 13-S ) :   0.9537 B(  9-C , 12-S ) :   0.9540
B( 10-S , 16-C ) :   0.9948 B( 11-S , 14-C ) :   1.0082 B( 12-S , 15-C ) :   1.0051
B( 13-S , 17-C ) :   1.0056 B( 14-C , 18-C ) :   0.8823 B( 14-C , 23-H ) :   0.9591
B( 14-C , 24-H ) :   0.9509 B( 15-C , 25-C ) :   0.8780 B( 15-C , 30-H ) :   0.9752
B( 15-C , 31-H ) :   0.9700 B( 16-C , 18-C ) :   0.8756 B( 16-C , 19-H ) :   0.9845
B( 16-C , 20-H ) :   0.9537 B( 17-C , 25-C ) :   0.8779 B( 17-C , 26-H ) :   0.9701
B( 17-C , 27-H ) :   0.9751 B( 18-C , 21-H ) :   0.9530 B( 18-C , 22-H ) :   0.9671
B( 25-C , 28-H ) :   0.9739 B( 25-C , 29-H ) :   0.9526

FINAL SINGLE POINT ENERGY     -4592.479490413663

DIPOLE MOMENT
-------------
                                X             Y             Z
Electronic contribution:    -23.03223      -6.99132     -11.84049
Nuclear contribution   :     25.55740       7.83989      13.06841
                        -----------------------------------------
Total Dipole Moment    :      2.52517       0.84857       1.22792
                        -----------------------------------------
Magnitude (a.u.)       :      2.93331
Magnitude (Debye)      :      7.45589

Rotational constants in cm-1:     0.012771     0.002548     0.002431
Rotational constants in MHz :   382.851421    76.396335    72.881711

                             ****ORCA TERMINATED NORMALLY****
TOTAL RUN TIME: 0 days 0 hours 27 minutes 28 seconds 870 msec
