                         Program Version 5.0.4 -  RELEASE  -
|  1> ! nofrozencore ReducedPop printbasis
|  2> ! B3LYP TZVP
|  3>
|  4> %basis
|  5> newgto V "CP(PPP)" end
|  6> end
|  7>
|  8> %pal
|  9> nprocs 4
| 10> end
| 11>
| 12> % sym SymThresh 1e-2 end
| 13> * xyz -2 2
| 14> V 0.96384469558801 -0.15958770656902668 0.563031488955897
| 15> S 1.3067626566123736 1.0668245345639198 -1.6354813565992878
| 16> S -0.17804394480358368 2.023879727905781 1.1648203602958696
| 17> S 0.8243079527219996 -2.0591333643472742 -0.8439451381488852
| 18> S -0.6578693334329916 -1.08633321918703 2.017701914783295
| 19> O 2.4286076630686186 0.17520530343517615 1.2083972726295642
| 20> C -1.153949384299861 1.6271086228277611 2.5822302009597284
| 21> C -1.281320175329295 0.31352511242004616 2.9129513204463446
| 22> C 1.682429288183516 -0.21447001795077372 -2.7902020816463278
| 23> C 1.5031460066796782 -1.50150988801154 -2.3864957327302108
| 24> S -1.960037535734591 2.9498364690202235 3.6075482859590067
| 25> S -2.2046170574458306 -0.2883606219218229 4.284844158381812
| 26> S 1.8230181516359614 -2.9176135421261447 -3.3815253810409187
| 27> S 2.322729044113957 0.17058223371085682 -4.491703431852294
| 28> C -3.913187533782356 0.34177486344632 3.8914855519550122
| 29> C 0.664974257708404 -2.63555104414424 -4.812571683637487
| 30> C -3.7455780883173686 2.8190388348629174 3.1550181414423784
| 31> C 0.8718087989362261 -0.16837947253066765 -5.581257620413939
| 32> C -4.377925185783407 1.8000002732846294 4.087560385667664
| 33> H -3.8281518159585963 2.5453681985218553 2.100920757911279
| 34> H -4.179800096015829 3.8145904451283426 3.290867318698768
| 35> H -5.4774248059079795 1.785743671571915 3.94252903833019
| 36> H -4.191776439153375 2.1166342058656213 5.121319368532317
| 37> H -4.554573014370607 -0.2932286954082944 4.511697430230133
| 38> H -4.087615836725585 0.056006609715761414 2.8497634933726226
| 39> C 0.9181954291449281 -1.6382527674959217 -5.96218606710553
| 40> H 0.9788283465466692 0.4777564059371846 -6.458299338824091
| 41> H -0.043430833077776 0.11112839958303077 -5.054884422863621
| 42> H 1.8909786879816302 -1.8425446287669929 -6.426496245376961
| 43> H 0.1408909154880209 -1.855491931426888 -6.722740645150507
| 44> H -0.30147666005957197 -2.4048966141495542 -4.354030822126473
| 45> H 0.5808449720021083 -3.632998722399454 -5.256996751050242
| 46> *
| 47>
| 48> % eprnmr
| 49> gtensor true
| 50> Nuclei = all H {aiso,adip,aorb,fgrad,rho}
| 51> Nuclei = all V {aiso,adip,aorb,fgrad,rho}
| 52> end
| 53>
| 54>                          ****END OF INPUT****

CARTESIAN COORDINATES (ANGSTROEM)
---------------------------------
  V      0.964857   -0.159561    0.563650
  S      1.307775    1.066851   -1.634863
  S     -0.177032    2.023906    1.165439
  S      0.825320   -2.059107   -0.843326
  S     -0.656857   -1.086306    2.018321
  O      2.429620    0.175232    1.209016
  C     -1.152937    1.627135    2.582849
  C     -1.280308    0.313552    2.913570
  C      1.683442   -0.214443   -2.789583
  C      1.504158   -1.501483   -2.385877
  S     -1.959025    2.949863    3.608167
  S     -2.203605   -0.288334    4.285463
  S      1.824030   -2.917587   -3.380907
  S      2.323741    0.170609   -4.491085
  C     -3.912175    0.341802    3.892104
  C      0.665986   -2.635524   -4.811953
  C     -3.744566    2.819066    3.155637
  C      0.872821   -0.168353   -5.580639
  C     -4.376913    1.800027    4.088179
  H     -3.827140    2.545395    2.101540
  H     -4.178788    3.814617    3.291486
  H     -5.476413    1.785770    3.943148
  H     -4.190764    2.116661    5.121938
  H     -4.553561   -0.293202    4.512316
  H     -4.086604    0.056033    2.850382
  C      0.919208   -1.638226   -5.961567
  H      0.979841    0.477783   -6.457681
  H     -0.042419    0.111155   -5.054266
  H      1.891991   -1.842518   -6.425877
  H      0.141903   -1.855465   -6.722122
  H     -0.300464   -2.404870   -4.353412
  H      0.581857   -3.632972   -5.256378

 Total Charge           Charge          ....   -2
 Multiplicity           Mult            ....    2
 Number of Electrons    NEL             ....  233
 Basis Dimension        Dim             ....  517

ORBITAL ENERGIES
----------------
                 SPIN UP ORBITALS
  NO   OCC          E(Eh)            E(eV)
   0   1.0000    -196.643991     -5350.9550
   1   1.0000     -88.680179     -2413.1104
   2   1.0000     -88.679999     -2413.1055
   3   1.0000     -88.674994     -2412.9693
   4   1.0000     -88.674755     -2412.9627
   5   1.0000     -88.617683     -2411.4097
   6   1.0000     -88.617459     -2411.4036
   7   1.0000     -88.608655     -2411.1641
   8   1.0000     -88.608317     -2411.1549
   9   1.0000     -22.019594      -599.1836
  10   1.0000     -18.852149      -512.9931
  11   1.0000     -18.526307      -504.1264
  12   1.0000     -18.520788      -503.9763
  13   1.0000     -18.520612      -503.9715
  14   1.0000     -10.018249      -272.6104
  15   1.0000     -10.018040      -272.6047
  16   1.0000     -10.013893      -272.4919
  17   1.0000     -10.013673      -272.4859
  18   1.0000     -10.006660      -272.2951
  19   1.0000     -10.006464      -272.2897
  20   1.0000      -9.995913      -272.0026
  21   1.0000      -9.995811      -271.9999
  22   1.0000      -9.989077      -271.8166
  23   1.0000      -9.988729      -271.8071
  24   1.0000      -7.733146      -210.4296
  25   1.0000      -7.732973      -210.4249
  26   1.0000      -7.729113      -210.3199
  27   1.0000      -7.728869      -210.3132
  28   1.0000      -7.672658      -208.7836
  29   1.0000      -7.672444      -208.7778
  30   1.0000      -7.662524      -208.5079
  31   1.0000      -7.662203      -208.4991
  32   1.0000      -5.698373      -155.0606
  33   1.0000      -5.698202      -155.0560
  34   1.0000      -5.694764      -154.9624
  35   1.0000      -5.694584      -154.9575
  36   1.0000      -5.694456      -154.9540
  37   1.0000      -5.694217      -154.9475
  38   1.0000      -5.690193      -154.8380
  39   1.0000      -5.689949      -154.8314
  40   1.0000      -5.687783      -154.7724
  41   1.0000      -5.687612      -154.7678
  42   1.0000      -5.683913      -154.6671
  43   1.0000      -5.683662      -154.6603
  44   1.0000      -5.637417      -153.4019
  45   1.0000      -5.637187      -153.3957
  46   1.0000      -5.631080      -153.2295
  47   1.0000      -5.630872      -153.2238
  48   1.0000      -5.630645      -153.2176
  49   1.0000      -5.630416      -153.2114
  50   1.0000      -5.627546      -153.1333
  51   1.0000      -5.627204      -153.1240
  52   1.0000      -5.621119      -152.9584
  53   1.0000      -5.620809      -152.9500
  54   1.0000      -5.620261      -152.9351
  55   1.0000      -5.619939      -152.9263
  56   1.0000      -2.412060       -65.6355
  57   1.0000      -1.449622       -39.4462
  58   1.0000      -1.442631       -39.2560
  59   1.0000      -1.441455       -39.2240
  60   1.0000      -0.643849       -17.5200
  61   1.0000      -0.643620       -17.5138
  62   1.0000      -0.611180       -16.6311
  63   1.0000      -0.597510       -16.2591
  64   1.0000      -0.597069       -16.2471
  65   1.0000      -0.571506       -15.5515
  66   1.0000      -0.571399       -15.5485
  67   1.0000      -0.491902       -13.3853
  68   1.0000      -0.490456       -13.3460
  69   1.0000      -0.487320       -13.2606
  70   1.0000      -0.485631       -13.2147
  71   1.0000      -0.424183       -11.5426
  72   1.0000      -0.421320       -11.4647
  73   1.0000      -0.411682       -11.2024
  74   1.0000      -0.406816       -11.0700
  75   1.0000      -0.376432       -10.2432
  76   1.0000      -0.372996       -10.1497
  77   1.0000      -0.292685        -7.9644
  78   1.0000      -0.292368        -7.9557
  79   1.0000      -0.278135        -7.5684
  80   1.0000      -0.277712        -7.5569
  81   1.0000      -0.259816        -7.0700
  82   1.0000      -0.254746        -6.9320
  83   1.0000      -0.241527        -6.5723
  84   1.0000      -0.238849        -6.4994
  85   1.0000      -0.196638        -5.3508
  86   1.0000      -0.195826        -5.3287
  87   1.0000      -0.192211        -5.2303
  88   1.0000      -0.186813        -5.0834
  89   1.0000      -0.183690        -4.9985
  90   1.0000      -0.182757        -4.9731
  91   1.0000      -0.177756        -4.8370
  92   1.0000      -0.150708        -4.1010
  93   1.0000      -0.149814        -4.0766
  94   1.0000      -0.144136        -3.9221
  95   1.0000      -0.143830        -3.9138
  96   1.0000      -0.141874        -3.8606
  97   1.0000      -0.098042        -2.6679
  98   1.0000      -0.092238        -2.5099
  99   1.0000      -0.086954        -2.3661
 100   1.0000      -0.083192        -2.2638
 101   1.0000      -0.082075        -2.2334
 102   1.0000      -0.069097        -1.8802
 103   1.0000      -0.066432        -1.8077
 104   1.0000      -0.054043        -1.4706
 105   1.0000      -0.039523        -1.0755
 106   1.0000      -0.035585        -0.9683
 107   1.0000      -0.033801        -0.9198
 108   1.0000      -0.027433        -0.7465
 109   1.0000      -0.012773        -0.3476
 110   1.0000      -0.008046        -0.2189
 111   1.0000      -0.003981        -0.1083
 112   1.0000       0.005121         0.1393
 113   1.0000       0.007078         0.1926
 114   1.0000       0.021240         0.5780
 115   1.0000       0.036443         0.9917
 116   1.0000       0.061285         1.6676
 117   0.0000       0.185881         5.0581
 118   0.0000       0.188096         5.1184
 119   0.0000       0.195314         5.3148
 120   0.0000       0.198562         5.4032
 121   0.0000       0.201849         5.4926

                 SPIN DOWN ORBITALS
  NO   OCC          E(Eh)            E(eV)
   0   1.0000    -196.644115     -5350.9584
   1   1.0000     -88.680191     -2413.1107
   2   1.0000     -88.680011     -2413.1058
   3   1.0000     -88.675010     -2412.9697
   4   1.0000     -88.674770     -2412.9632
   5   1.0000     -88.617836     -2411.4139
   6   1.0000     -88.617612     -2411.4078
   7   1.0000     -88.608835     -2411.1690
   8   1.0000     -88.608497     -2411.1598
   9   1.0000     -22.004670      -598.7775
  10   1.0000     -18.856164      -513.1023
  11   1.0000     -18.520845      -503.9778
  12   1.0000     -18.505091      -503.5491
  13   1.0000     -18.504361      -503.5293
  14   1.0000     -10.018246      -272.6103
  15   1.0000     -10.018036      -272.6046
  16   1.0000     -10.013891      -272.4918
  17   1.0000     -10.013670      -272.4858
  18   1.0000     -10.006661      -272.2951
  19   1.0000     -10.006464      -272.2897
  20   1.0000      -9.995770      -271.9987
  21   1.0000      -9.995670      -271.9960
  22   1.0000      -9.988697      -271.8063
  23   1.0000      -9.988354      -271.7969
  24   1.0000      -7.733158      -210.4299
  25   1.0000      -7.732985      -210.4252
  26   1.0000      -7.729130      -210.3203
  27   1.0000      -7.728885      -210.3137
  28   1.0000      -7.672801      -208.7875
  29   1.0000      -7.672587      -208.7817
  30   1.0000      -7.662691      -208.5124
  31   1.0000      -7.662370      -208.5037
  32   1.0000      -5.698392      -155.0611
  33   1.0000      -5.698222      -155.0565
  34   1.0000      -5.694787      -154.9630
  35   1.0000      -5.694607      -154.9581
  36   1.0000      -5.694471      -154.9544
  37   1.0000      -5.694232      -154.9479
  38   1.0000      -5.690210      -154.8385
  39   1.0000      -5.689966      -154.8319
  40   1.0000      -5.687789      -154.7726
  41   1.0000      -5.687619      -154.7680
  42   1.0000      -5.683941      -154.6679
  43   1.0000      -5.683691      -154.6611
  44   1.0000      -5.637602      -153.4069
  45   1.0000      -5.637371      -153.4007
  46   1.0000      -5.631393      -153.2380
  47   1.0000      -5.631190      -153.2325
  48   1.0000      -5.630813      -153.2222
  49   1.0000      -5.630579      -153.2159
  50   1.0000      -5.627717      -153.1380
  51   1.0000      -5.627376      -153.1287
  52   1.0000      -5.621580      -152.9710
  53   1.0000      -5.621273      -152.9626
  54   1.0000      -5.620412      -152.9392
  55   1.0000      -5.620091      -152.9305
  56   1.0000      -2.367082       -64.4116
  57   1.0000      -1.429457       -38.8975
  58   1.0000      -1.380841       -37.5746
  59   1.0000      -1.379806       -37.5464
  60   1.0000      -0.643795       -17.5185
  61   1.0000      -0.643567       -17.5123
  62   1.0000      -0.620236       -16.8775
  63   1.0000      -0.597340       -16.2544
  64   1.0000      -0.596852       -16.2412
  65   1.0000      -0.571516       -15.5517
  66   1.0000      -0.571406       -15.5488
  67   1.0000      -0.492032       -13.3889
  68   1.0000      -0.490587       -13.3495
  69   1.0000      -0.487237       -13.2584
  70   1.0000      -0.485576       -13.2132
  71   1.0000      -0.424387       -11.5481
  72   1.0000      -0.421607       -11.4725
  73   1.0000      -0.411745       -11.2042
  74   1.0000      -0.406936       -11.0733
  75   1.0000      -0.376437       -10.2434
  76   1.0000      -0.373078       -10.1520
  77   1.0000      -0.292667        -7.9639
  78   1.0000      -0.292361        -7.9556
  79   1.0000      -0.278116        -7.5679
  80   1.0000      -0.277699        -7.5566
  81   1.0000      -0.259542        -7.0625
  82   1.0000      -0.254681        -6.9302
  83   1.0000      -0.241409        -6.5691
  84   1.0000      -0.238755        -6.4968
  85   1.0000      -0.196547        -5.3483
  86   1.0000      -0.195781        -5.3275
  87   1.0000      -0.191391        -5.2080
  88   1.0000      -0.186760        -5.0820
  89   1.0000      -0.183582        -4.9955
  90   1.0000      -0.182676        -4.9709
  91   1.0000      -0.176328        -4.7981
  92   1.0000      -0.150316        -4.0903
  93   1.0000      -0.149341        -4.0638
  94   1.0000      -0.143875        -3.9150
  95   1.0000      -0.143526        -3.9055
  96   1.0000      -0.141625        -3.8538
  97   1.0000      -0.097475        -2.6524
  98   1.0000      -0.091085        -2.4785
  99   1.0000      -0.086879        -2.3641
 100   1.0000      -0.082855        -2.2546
 101   1.0000      -0.082269        -2.2386
 102   1.0000      -0.071644        -1.9495
 103   1.0000      -0.067137        -1.8269
 104   1.0000      -0.049699        -1.3524
 105   1.0000      -0.040678        -1.1069
 106   1.0000      -0.034949        -0.9510
 107   1.0000      -0.033417        -0.9093
 108   1.0000      -0.026995        -0.7346
 109   1.0000      -0.011928        -0.3246
 110   1.0000      -0.008211        -0.2234
 111   1.0000      -0.003008        -0.0818
 112   1.0000       0.007919         0.2155
 113   1.0000       0.010630         0.2893
 114   1.0000       0.036584         0.9955
 115   1.0000       0.060320         1.6414
 116   0.0000       0.183471         4.9925
 117   0.0000       0.187689         5.1073
 118   0.0000       0.191925         5.2226
 119   0.0000       0.196183         5.3384
 120   0.0000       0.198845         5.4109

MULLIKEN ATOMIC CHARGES AND SPIN POPULATIONS
--------------------------------------------
   0 V :    0.435976    1.216783
   1 S :   -0.246930   -0.031486
   2 S :   -0.246456   -0.031351
   3 S :   -0.257126   -0.017773
   4 S :   -0.256652   -0.017638
   5 O :   -0.512117   -0.155262
   6 C :   -0.098487    0.006566
   7 C :   -0.125536    0.011653
   8 C :   -0.097404    0.006674
   9 C :   -0.126466    0.011422
  10 S :   -0.061665   -0.000667
  11 S :   -0.024611    0.000571
  12 S :   -0.024956    0.000528
  13 S :   -0.061834   -0.000732
  14 C :   -0.373873    0.000170
  15 C :   -0.372607    0.000191
  16 C :   -0.308079    0.000134
  17 C :   -0.308373    0.000160
  18 C :   -0.082558    0.000142
  19 H :    0.152646   -0.000073
  20 H :    0.108272   -0.000060
  21 H :    0.042141    0.000044
  22 H :    0.079860    0.000001
  23 H :    0.092481    0.000077
  24 H :    0.141249   -0.000095
  25 C :   -0.082245    0.000144
  26 H :    0.108052   -0.000059
  27 H :    0.152659   -0.000077
  28 H :    0.079488   -0.000003
  29 H :    0.041986    0.000036
  30 H :    0.141034   -0.000100
  31 H :    0.092131    0.000082
Sum of atomic charges         :   -2.0000000

LOEWDIN ATOMIC CHARGES AND SPIN POPULATIONS
-------------------------------------------
   0 V :   -0.231043    1.170538
   1 S :    0.077179   -0.023221
   2 S :    0.077748   -0.023049
   3 S :    0.104205   -0.010223
   4 S :    0.104832   -0.010158
   5 O :   -0.378819   -0.140574
   6 C :   -0.534497    0.005526
   7 C :   -0.566655    0.014944
   8 C :   -0.533741    0.005473
   9 C :   -0.567125    0.014742
  10 S :    0.323837   -0.001127
  11 S :    0.348050   -0.000953
  12 S :    0.347860   -0.000990
  13 S :    0.323467   -0.001170
  14 C :   -0.298287    0.000082
  15 C :   -0.298309    0.000086
  16 C :   -0.287560    0.000124
  17 C :   -0.287766    0.000143
  18 C :   -0.187012   -0.000062
  19 H :    0.069251   -0.000040
  20 H :    0.048520   -0.000028
  21 H :    0.045532    0.000015
  22 H :    0.053044    0.000008
  23 H :    0.045677    0.000041
  24 H :    0.063353   -0.000028
  25 C :   -0.186901   -0.000065
  26 H :    0.048498   -0.000026
  27 H :    0.069235   -0.000040
  28 H :    0.052992    0.000005
  29 H :    0.045577    0.000014
  30 H :    0.063248   -0.000031
  31 H :    0.045607    0.000044

  Mayer bond orders larger than 0.100000
B(  0-V ,  1-S ) :   0.7368 B(  0-V ,  2-S ) :   0.7408 B(  0-V ,  3-S ) :   0.8523
B(  0-V ,  4-S ) :   0.8509 B(  0-V ,  5-O ) :   2.0961 B(  1-S ,  8-C ) :   1.1595
B(  2-S ,  6-C ) :   1.1572 B(  3-S ,  9-C ) :   1.1032 B(  4-S ,  7-C ) :   1.1046
B(  6-C ,  7-C ) :   1.5175 B(  6-C , 10-S ) :   0.9394 B(  7-C , 11-S ) :   0.9676
B(  8-C ,  9-C ) :   1.5174 B(  8-C , 13-S ) :   0.9384 B(  9-C , 12-S ) :   0.9678
B( 10-S , 16-C ) :   0.9685 B( 11-S , 14-C ) :   1.0352 B( 12-S , 15-C ) :   1.0357
B( 13-S , 17-C ) :   0.9700 B( 14-C , 18-C ) :   0.8703 B( 14-C , 23-H ) :   0.9722
B( 14-C , 24-H ) :   0.9766 B( 15-C , 25-C ) :   0.8705 B( 15-C , 30-H ) :   0.9765
B( 15-C , 31-H ) :   0.9720 B( 16-C , 18-C ) :   0.8847 B( 16-C , 19-H ) :   0.9724
B( 16-C , 20-H ) :   0.9682 B( 17-C , 25-C ) :   0.8844 B( 17-C , 26-H ) :   0.9683
B( 17-C , 27-H ) :   0.9721 B( 18-C , 21-H ) :   0.9488 B( 18-C , 22-H ) :   0.9736
B( 25-C , 28-H ) :   0.9738 B( 25-C , 29-H ) :   0.9488

FINAL SINGLE POINT ENERGY     -4592.689940267301

DIPOLE MOMENT
-------------
                                X             Y             Z
Electronic contribution:     23.29753      -1.84742      12.92417
Nuclear contribution   :    -26.09718       1.56847     -14.28852
                        -----------------------------------------
Total Dipole Moment    :     -2.79965      -0.27895      -1.36435
                        -----------------------------------------
Magnitude (a.u.)       :      3.12687
Magnitude (Debye)      :      7.94787

Rotational constants in cm-1:     0.012739     0.002548     0.002429
Rotational constants in MHz :   381.909315    76.391122    72.806914

                             ****ORCA TERMINATED NORMALLY****
TOTAL RUN TIME: 0 days 0 hours 43 minutes 39 seconds 955 msec
