                         Program Version 5.0.4 -  RELEASE  -
|  1> ! nofrozencore ReducedPop printbasis
|  2> ! B3LYP TZVP
|  3>
|  4> %basis
|  5> newgto V "CP(PPP)" end
|  6> end
|  7>
|  8> %pal
|  9> nprocs 8
| 10> end
| 11>
| 12> % sym SymThresh 1e-2 end
| 13> * xyz -2 2
| 14> V -0.9055094271579889 -0.6504128297178461 0.026898026701508707
| 15> S -0.49443899559094956 0.057549902084927496 -2.2796304744039175
| 16> S 1.0137035919132629 -2.150013617134285 -0.27481091389589374
| 17> S -1.701404791707142 1.6555574812641096 0.29669701296342016
| 18> S -0.015408396680790781 -0.4235485913150643 2.295759048690814
| 19> O -2.2029893915994285 -1.5801925318439873 0.061784033656512645
| 20> C 1.5519349741328001 -2.488684434884124 1.3747407931089826
| 21> C 1.12752673637051 -1.7655694843699388 2.446352983170936
| 22> C -1.4150923130466533 1.559921665785189 -2.4372448694665945
| 23> C -1.922214317655343 2.223272620229828 -1.3628484421879796
| 24> S 2.724017939866055 -3.8542027392425147 1.521888610211796
| 25> S 1.7158850735719413 -2.0714164820066467 4.124921347175268
| 26> S -2.8478440319396783 3.7659043369691565 -1.5168544905522279
| 27> S -1.5880610747888273 2.1655087666854897 -4.129010460160987
| 28> C 3.50178704654009 -1.6014987994194012 4.027856189933828
| 29> C -1.5596695629236301 4.964212107115224 -2.0830789694762526
| 30> C 4.293788501386219 -3.003725002651881 2.00099356785609
| 31> C -0.5686913787126482 3.7074814921770276 -4.118935066086465
| 32> C 4.452403325729732 -2.6707352062644683 3.4855932991191487
| 33> H 4.375621294547699 -2.103515067969631 1.3858125032956063
| 34> H 5.088472226285385 -3.6925074775171245 1.6929342658152378
| 35> H 5.48466233319777 -2.3150423261395314 3.6427315874594797
| 36> H 4.3362248186348165 -3.588116209688846 4.075068379344156
| 37> H 3.780053031768461 -1.352848660733401 5.058145526423979
| 38> H 3.563193812473106 -0.684831540561236 3.43507726274081
| 39> C -1.2540787541410705 4.965249165159549 -3.5818564896169955
| 40> H -0.290285929625353 3.8623842633717658 -5.167481437103834
| 41> H 0.3452053411797234 3.4878723546529438 -3.560317670724584
| 42> H -2.183916735805887 5.133356575750281 -4.138419857232022
| 43> H -0.5938048489814657 5.823819164842 -3.7905737580079
| 44> H -0.6567819907832173 4.7701405606147755 -1.4976144585805744
| 45> H -1.9446356967533778 5.946627990861433 -1.7872975825359447
| 46> *
| 47>
| 48> % eprnmr
| 49> gtensor true
| 50> Nuclei = all H {aiso,adip,aorb,fgrad,rho}
| 51> Nuclei = all V {aiso,adip,aorb,fgrad,rho}
| 52> end
| 53>
| 54>                          ****END OF INPUT****

CARTESIAN COORDINATES (ANGSTROEM)
---------------------------------
  V     -0.906430   -0.651158    0.026971
  S     -0.495360    0.056805   -2.279557
  S      1.012783   -2.150759   -0.274738
  S     -1.702326    1.654812    0.296770
  S     -0.016329   -0.424294    2.295832
  O     -2.203910   -1.580938    0.061857
  C      1.551014   -2.489430    1.374814
  C      1.126606   -1.766315    2.446426
  C     -1.416013    1.559176   -2.437172
  C     -1.923135    2.222527   -1.362775
  S      2.723097   -3.854948    1.521962
  S      1.714964   -2.072162    4.124994
  S     -2.848765    3.765159   -1.516781
  S     -1.588982    2.164764   -4.128937
  C      3.500866   -1.602244    4.027929
  C     -1.560590    4.963467   -2.083006
  C      4.292868   -3.004470    2.001067
  C     -0.569612    3.706736   -4.118862
  C      4.451483   -2.671480    3.485666
  H      4.374700   -2.104260    1.385886
  H      5.087551   -3.693253    1.693007
  H      5.483742   -2.315788    3.642805
  H      4.335304   -3.588861    4.075141
  H      3.779132   -1.353594    5.058219
  H      3.562273   -0.685577    3.435150
  C     -1.255000    4.964504   -3.581783
  H     -0.291207    3.861639   -5.167408
  H      0.344285    3.487127   -3.560245
  H     -2.184838    5.132611   -4.138347
  H     -0.594726    5.823074   -3.790501
  H     -0.657703    4.769395   -1.497541
  H     -1.945557    5.945883   -1.787225

 Total Charge           Charge          ....   -2
 Multiplicity           Mult            ....    2
 Number of Electrons    NEL             ....  233
 Basis Dimension        Dim             ....  517

ORBITAL ENERGIES
----------------
                 SPIN UP ORBITALS
  NO   OCC          E(Eh)            E(eV)
   0   1.0000    -196.640102     -5350.8492
   1   1.0000     -88.676717     -2413.0161
   2   1.0000     -88.676614     -2413.0133
   3   1.0000     -88.676478     -2413.0096
   4   1.0000     -88.676447     -2413.0088
   5   1.0000     -88.612315     -2411.2637
   6   1.0000     -88.612290     -2411.2630
   7   1.0000     -88.611526     -2411.2422
   8   1.0000     -88.611516     -2411.2419
   9   1.0000     -22.015910      -599.0834
  10   1.0000     -18.857125      -513.1285
  11   1.0000     -18.522736      -504.0293
  12   1.0000     -18.516959      -503.8721
  13   1.0000     -18.516920      -503.8710
  14   1.0000     -10.015828      -272.5445
  15   1.0000     -10.015822      -272.5444
  16   1.0000     -10.015737      -272.5421
  17   1.0000     -10.015727      -272.5418
  18   1.0000     -10.005123      -272.2532
  19   1.0000     -10.005039      -272.2510
  20   1.0000      -9.992021      -271.8967
  21   1.0000      -9.991981      -271.8956
  22   1.0000      -9.991300      -271.8771
  23   1.0000      -9.991255      -271.8759
  24   1.0000      -7.730293      -210.3520
  25   1.0000      -7.730199      -210.3494
  26   1.0000      -7.730082      -210.3462
  27   1.0000      -7.730042      -210.3451
  28   1.0000      -7.666707      -208.6217
  29   1.0000      -7.666678      -208.6209
  30   1.0000      -7.665959      -208.6014
  31   1.0000      -7.665954      -208.6012
  32   1.0000      -5.695537      -154.9834
  33   1.0000      -5.695445      -154.9809
  34   1.0000      -5.695340      -154.9781
  35   1.0000      -5.695298      -154.9769
  36   1.0000      -5.691653      -154.8777
  37   1.0000      -5.691555      -154.8751
  38   1.0000      -5.691445      -154.8721
  39   1.0000      -5.691408      -154.8711
  40   1.0000      -5.685052      -154.6981
  41   1.0000      -5.684961      -154.6956
  42   1.0000      -5.684816      -154.6917
  43   1.0000      -5.684782      -154.6908
  44   1.0000      -5.631551      -153.2423
  45   1.0000      -5.631515      -153.2413
  46   1.0000      -5.630806      -153.2220
  47   1.0000      -5.630804      -153.2220
  48   1.0000      -5.625137      -153.0678
  49   1.0000      -5.625113      -153.0671
  50   1.0000      -5.624712      -153.0562
  51   1.0000      -5.624674      -153.0552
  52   1.0000      -5.624406      -153.0479
  53   1.0000      -5.624403      -153.0478
  54   1.0000      -5.623931      -153.0349
  55   1.0000      -5.623925      -153.0348
  56   1.0000      -2.409595       -65.5684
  57   1.0000      -1.450958       -39.4826
  58   1.0000      -1.439364       -39.1671
  59   1.0000      -1.438285       -39.1377
  60   1.0000      -0.643017       -17.4974
  61   1.0000      -0.642951       -17.4956
  62   1.0000      -0.618171       -16.8213
  63   1.0000      -0.593250       -16.1432
  64   1.0000      -0.592802       -16.1310
  65   1.0000      -0.575316       -15.6552
  66   1.0000      -0.575241       -15.6531
  67   1.0000      -0.491094       -13.3634
  68   1.0000      -0.489220       -13.3124
  69   1.0000      -0.487317       -13.2606
  70   1.0000      -0.486147       -13.2287
  71   1.0000      -0.422923       -11.5083
  72   1.0000      -0.420085       -11.4311
  73   1.0000      -0.412239       -11.2176
  74   1.0000      -0.407143       -11.0789
  75   1.0000      -0.376119       -10.2347
  76   1.0000      -0.372936       -10.1481
  77   1.0000      -0.292357        -7.9554
  78   1.0000      -0.292166        -7.9502
  79   1.0000      -0.277266        -7.5448
  80   1.0000      -0.276997        -7.5375
  81   1.0000      -0.260416        -7.0863
  82   1.0000      -0.255681        -6.9574
  83   1.0000      -0.241636        -6.5752
  84   1.0000      -0.238749        -6.4967
  85   1.0000      -0.195206        -5.3118
  86   1.0000      -0.192650        -5.2423
  87   1.0000      -0.191961        -5.2235
  88   1.0000      -0.191573        -5.2130
  89   1.0000      -0.184135        -5.0106
  90   1.0000      -0.183916        -5.0046
  91   1.0000      -0.180626        -4.9151
  92   1.0000      -0.150480        -4.0948
  93   1.0000      -0.149871        -4.0782
  94   1.0000      -0.143779        -3.9124
  95   1.0000      -0.143096        -3.8938
  96   1.0000      -0.141841        -3.8597
  97   1.0000      -0.097332        -2.6485
  98   1.0000      -0.096379        -2.6226
  99   1.0000      -0.089363        -2.4317
 100   1.0000      -0.083217        -2.2644
 101   1.0000      -0.081435        -2.2160
 102   1.0000      -0.080142        -2.1808
 103   1.0000      -0.069629        -1.8947
 104   1.0000      -0.049892        -1.3576
 105   1.0000      -0.038108        -1.0370
 106   1.0000      -0.037930        -1.0321
 107   1.0000      -0.035544        -0.9672
 108   1.0000      -0.032040        -0.8718
 109   1.0000      -0.012911        -0.3513
 110   1.0000      -0.004150        -0.1129
 111   1.0000      -0.003309        -0.0900
 112   1.0000       0.006188         0.1684
 113   1.0000       0.010702         0.2912
 114   1.0000       0.016353         0.4450
 115   1.0000       0.033880         0.9219
 116   1.0000       0.059911         1.6303
 117   0.0000       0.188145         5.1197
 118   0.0000       0.195422         5.3177
 119   0.0000       0.196393         5.3441
 120   0.0000       0.196648         5.3511
 121   0.0000       0.211095         5.7442

                 SPIN DOWN ORBITALS
  NO   OCC          E(Eh)            E(eV)
   0   1.0000    -196.640244     -5350.8531
   1   1.0000     -88.676730     -2413.0165
   2   1.0000     -88.676627     -2413.0137
   3   1.0000     -88.676492     -2413.0100
   4   1.0000     -88.676460     -2413.0092
   5   1.0000     -88.612475     -2411.2680
   6   1.0000     -88.612450     -2411.2674
   7   1.0000     -88.611685     -2411.2465
   8   1.0000     -88.611676     -2411.2463
   9   1.0000     -22.001229      -598.6839
  10   1.0000     -18.860716      -513.2262
  11   1.0000     -18.517599      -503.8895
  12   1.0000     -18.501450      -503.4501
  13   1.0000     -18.500780      -503.4318
  14   1.0000     -10.015824      -272.5444
  15   1.0000     -10.015818      -272.5443
  16   1.0000     -10.015734      -272.5420
  17   1.0000     -10.015722      -272.5417
  18   1.0000     -10.005123      -272.2532
  19   1.0000     -10.005039      -272.2509
  20   1.0000      -9.991767      -271.8898
  21   1.0000      -9.991727      -271.8887
  22   1.0000      -9.991048      -271.8702
  23   1.0000      -9.991003      -271.8690
  24   1.0000      -7.730307      -210.3523
  25   1.0000      -7.730213      -210.3498
  26   1.0000      -7.730096      -210.3466
  27   1.0000      -7.730056      -210.3455
  28   1.0000      -7.666856      -208.6257
  29   1.0000      -7.666827      -208.6250
  30   1.0000      -7.666107      -208.6054
  31   1.0000      -7.666102      -208.6053
  32   1.0000      -5.695553      -154.9839
  33   1.0000      -5.695461      -154.9814
  34   1.0000      -5.695357      -154.9785
  35   1.0000      -5.695315      -154.9774
  36   1.0000      -5.691672      -154.8783
  37   1.0000      -5.691575      -154.8756
  38   1.0000      -5.691466      -154.8727
  39   1.0000      -5.691428      -154.8716
  40   1.0000      -5.685068      -154.6986
  41   1.0000      -5.684977      -154.6961
  42   1.0000      -5.684834      -154.6922
  43   1.0000      -5.684799      -154.6913
  44   1.0000      -5.631723      -153.2470
  45   1.0000      -5.631687      -153.2460
  46   1.0000      -5.630978      -153.2267
  47   1.0000      -5.630975      -153.2266
  48   1.0000      -5.625528      -153.0784
  49   1.0000      -5.625506      -153.0778
  50   1.0000      -5.624847      -153.0599
  51   1.0000      -5.624809      -153.0588
  52   1.0000      -5.624799      -153.0586
  53   1.0000      -5.624794      -153.0584
  54   1.0000      -5.624065      -153.0386
  55   1.0000      -5.624059      -153.0384
  56   1.0000      -2.365378       -64.3652
  57   1.0000      -1.432106       -38.9696
  58   1.0000      -1.377910       -37.4948
  59   1.0000      -1.377271       -37.4774
  60   1.0000      -0.642970       -17.4961
  61   1.0000      -0.642900       -17.4942
  62   1.0000      -0.625863       -17.0306
  63   1.0000      -0.593064       -16.1381
  64   1.0000      -0.592595       -16.1253
  65   1.0000      -0.575311       -15.6550
  66   1.0000      -0.575236       -15.6530
  67   1.0000      -0.491119       -13.3640
  68   1.0000      -0.489257       -13.3134
  69   1.0000      -0.487322       -13.2607
  70   1.0000      -0.486169       -13.2293
  71   1.0000      -0.423166       -11.5149
  72   1.0000      -0.420398       -11.4396
  73   1.0000      -0.412253       -11.2180
  74   1.0000      -0.407241       -11.0816
  75   1.0000      -0.376074       -10.2335
  76   1.0000      -0.372965       -10.1489
  77   1.0000      -0.292332        -7.9548
  78   1.0000      -0.292155        -7.9500
  79   1.0000      -0.277242        -7.5441
  80   1.0000      -0.276983        -7.5371
  81   1.0000      -0.260219        -7.0809
  82   1.0000      -0.255646        -6.9565
  83   1.0000      -0.241530        -6.5724
  84   1.0000      -0.238675        -6.4947
  85   1.0000      -0.194767        -5.2999
  86   1.0000      -0.192603        -5.2410
  87   1.0000      -0.191904        -5.2220
  88   1.0000      -0.191550        -5.2123
  89   1.0000      -0.184080        -5.0091
  90   1.0000      -0.183867        -5.0033
  91   1.0000      -0.178504        -4.8573
  92   1.0000      -0.149809        -4.0765
  93   1.0000      -0.149574        -4.0701
  94   1.0000      -0.143541        -3.9059
  95   1.0000      -0.142808        -3.8860
  96   1.0000      -0.141777        -3.8580
  97   1.0000      -0.095897        -2.6095
  98   1.0000      -0.095785        -2.6064
  99   1.0000      -0.089522        -2.4360
 100   1.0000      -0.083209        -2.2642
 101   1.0000      -0.082041        -2.2324
 102   1.0000      -0.080984        -2.2037
 103   1.0000      -0.070931        -1.9301
 104   1.0000      -0.045757        -1.2451
 105   1.0000      -0.038220        -1.0400
 106   1.0000      -0.037269        -1.0141
 107   1.0000      -0.034493        -0.9386
 108   1.0000      -0.032017        -0.8712
 109   1.0000      -0.012016        -0.3270
 110   1.0000      -0.005490        -0.1494
 111   1.0000      -0.002296        -0.0625
 112   1.0000       0.007094         0.1930
 113   1.0000       0.011592         0.3154
 114   1.0000       0.034137         0.9289
 115   1.0000       0.059120         1.6087
 116   0.0000       0.185439         5.0460
 117   0.0000       0.189363         5.1528
 118   0.0000       0.196019         5.3339
 119   0.0000       0.196501         5.3471
 120   0.0000       0.196971         5.3598

MULLIKEN ATOMIC CHARGES AND SPIN POPULATIONS
--------------------------------------------
   0 V :    0.448532    1.199876
   1 S :   -0.253545   -0.024252
   2 S :   -0.254678   -0.024109
   3 S :   -0.254842   -0.024223
   4 S :   -0.253781   -0.024141
   5 O :   -0.506382   -0.139104
   6 C :   -0.115131    0.009101
   7 C :   -0.116950    0.008618
   8 C :   -0.116866    0.008629
   9 C :   -0.114885    0.009158
  10 S :   -0.045597   -0.000275
  11 S :   -0.044518   -0.000102
  12 S :   -0.045699   -0.000292
  13 S :   -0.044829   -0.000130
  14 C :   -0.339561    0.000205
  15 C :   -0.335860    0.000389
  16 C :   -0.336640    0.000368
  17 C :   -0.338411    0.000230
  18 C :   -0.083543    0.000132
  19 H :    0.146026   -0.000119
  20 H :    0.101607    0.000033
  21 H :    0.044198    0.000037
  22 H :    0.078445    0.000018
  23 H :    0.101310    0.000014
  24 H :    0.147533   -0.000086
  25 C :   -0.084446    0.000132
  26 H :    0.101106    0.000019
  27 H :    0.147385   -0.000091
  28 H :    0.078388    0.000013
  29 H :    0.044279    0.000034
  30 H :    0.145977   -0.000122
  31 H :    0.101378    0.000038
Sum of atomic charges         :   -2.0000000

LOEWDIN ATOMIC CHARGES AND SPIN POPULATIONS
-------------------------------------------
   0 V :   -0.241622    1.153887
   1 S :    0.087685   -0.016432
   2 S :    0.087244   -0.016361
   3 S :    0.087192   -0.016435
   4 S :    0.087435   -0.016361
   5 O :   -0.350809   -0.124536
   6 C :   -0.552195    0.009987
   7 C :   -0.553072    0.009927
   8 C :   -0.552857    0.009914
   9 C :   -0.551976    0.010001
  10 S :    0.335765   -0.001080
  11 S :    0.335664   -0.000994
  12 S :    0.335637   -0.001090
  13 S :    0.335568   -0.001012
  14 C :   -0.293451    0.000128
  15 C :   -0.293644    0.000211
  16 C :   -0.293742    0.000202
  17 C :   -0.293558    0.000138
  18 C :   -0.184978   -0.000037
  19 H :    0.065832   -0.000030
  20 H :    0.047403    0.000009
  21 H :    0.046815    0.000017
  22 H :    0.053580    0.000012
  23 H :    0.047356    0.000003
  24 H :    0.066364   -0.000024
  25 C :   -0.185002   -0.000039
  26 H :    0.047354    0.000006
  27 H :    0.066327   -0.000025
  28 H :    0.053589    0.000011
  29 H :    0.046823    0.000017
  30 H :    0.065899   -0.000030
  31 H :    0.047371    0.000013

  Mayer bond orders larger than 0.100000
B(  0-V ,  1-S ) :   0.7949 B(  0-V ,  2-S ) :   0.7829 B(  0-V ,  3-S ) :   0.7829
B(  0-V ,  4-S ) :   0.7944 B(  0-V ,  5-O ) :   2.1082 B(  1-S ,  8-C ) :   1.1359
B(  2-S ,  6-C ) :   1.1377 B(  3-S ,  9-C ) :   1.1381 B(  4-S ,  7-C ) :   1.1359
B(  6-C ,  7-C ) :   1.5177 B(  6-C , 10-S ) :   0.9523 B(  7-C , 11-S ) :   0.9539
B(  8-C ,  9-C ) :   1.5185 B(  8-C , 13-S ) :   0.9538 B(  9-C , 12-S ) :   0.9525
B( 10-S , 16-C ) :   1.0054 B( 11-S , 14-C ) :   1.0046 B( 12-S , 15-C ) :   1.0056
B( 13-S , 17-C ) :   1.0049 B( 14-C , 18-C ) :   0.8786 B( 14-C , 23-H ) :   0.9701
B( 14-C , 24-H ) :   0.9750 B( 15-C , 25-C ) :   0.8781 B( 15-C , 30-H ) :   0.9749
B( 15-C , 31-H ) :   0.9697 B( 16-C , 18-C ) :   0.8778 B( 16-C , 19-H ) :   0.9749
B( 16-C , 20-H ) :   0.9698 B( 17-C , 25-C ) :   0.8786 B( 17-C , 26-H ) :   0.9702
B( 17-C , 27-H ) :   0.9748 B( 18-C , 21-H ) :   0.9524 B( 18-C , 22-H ) :   0.9736
B( 25-C , 28-H ) :   0.9738 B( 25-C , 29-H ) :   0.9524

FINAL SINGLE POINT ENERGY     -4592.724271572923

DIPOLE MOMENT
-------------
                                X             Y             Z
Electronic contribution:    -21.67912     -15.55890       0.66099
Nuclear contribution   :     24.16964      17.34602      -0.73574
                        -----------------------------------------
Total Dipole Moment    :      2.49052       1.78712      -0.07475
                        -----------------------------------------
Magnitude (a.u.)       :      3.06628
Magnitude (Debye)      :      7.79387

Rotational constants in cm-1:     0.012751     0.002548     0.002431
Rotational constants in MHz :   382.270425    76.376038    72.873076

                             ****ORCA TERMINATED NORMALLY****
TOTAL RUN TIME: 0 days 0 hours 27 minutes 46 seconds 791 msec
