                         Program Version 5.0.4 -  RELEASE  -
|  1> ! nofrozencore ReducedPop printbasis
|  2> ! B3LYP TZVP
|  3>
|  4> %basis
|  5> newgto V "CP(PPP)" end
|  6> end
|  7>
|  8> %pal
|  9> nprocs 8
| 10> end
| 11>
| 12> % sym SymThresh 1e-2 end
| 13> * xyz -2 2
| 14> V -1.1033926956780822 0.03356245905927439 0.15982043850881522
| 15> S -0.35132809359793765 2.3146294976720103 -0.329177548143029
| 16> S -0.6968672553850017 -0.4179463809282663 -2.218239763130248
| 17> S -0.017961215058408083 0.4396032710316925 2.317050569976379
| 18> S -0.39331152995086716 -2.290697816531431 0.4332245854332851
| 19> O -2.682972899853163 0.08952134073322476 0.3858901618023397
| 20> C -0.5848991644399938 -2.1874866501632284 -2.283351135370347
| 21> C -0.4773486842761992 -2.981969092494596 -1.1853676861960338
| 22> C 0.06254750052644488 2.9780549304553925 1.2543897333573093
| 23> C 0.20314019216460763 2.195230880298476 2.3568361370227477
| 24> S -0.720019667063981 -2.831761964761464 -3.9617253204015004
| 25> S -0.26300321885439826 -4.773998620174327 -1.3194884517883636
| 26> S 0.6532645409523974 2.8554715126153924 3.9745756956251586
| 27> S 0.33396589995950293 4.761715941705308 1.2901350605362116
| 28> C 1.1477789776927005 -4.967147056412497 -2.071775930119947
| 29> C 2.423643641380455 3.423139334279024 3.708076461254386
| 30> C 1.2154083066502852 -3.554006048692932 -4.261877300751928
| 31> C 2.1139218907606616 4.903762801454154 1.6108362571594181
| 32> C 1.3259066013193774 -4.945174450206443 -3.590552763050851
| 33> H 1.8478736845739048 -2.8078501019637443 -3.772634240015649
| 34> H 1.4063065251946183 -3.5679037663135778 -5.3371384346968584
| 35> H 2.340734194806814 -5.412292505230898 -3.745510278340262
| 36> H 0.5874022945248049 -5.61199089271795 -4.05299505886533
| 37> H 1.4184152442319664 -5.986215206504041 -1.7624198377867175
| 38> H 1.9098475408048439 -4.314871962106435 -1.6235725604436237
| 39> C 2.5728236091326937 4.802053324056143 3.063488078247534
| 40> H 2.3791882886715516 5.893563387228619 1.2247521887016406
| 41> H 2.62182115096661 4.162716837003883 0.9890664136479981
| 42> H 2.0314651071902885 5.539799052893271 3.665699915308422
| 43> H 3.6379477032251986 5.085593477350021 3.090156593573767
| 44> H 2.914357968400434 2.6505503364989256 3.1126374711424916
| 45> H 2.877068203280604 3.4248781700634967 4.703860267779564
| 46> *
| 47>
| 48> % eprnmr
| 49> gtensor true
| 50> Nuclei = all H {aiso,adip,aorb,fgrad,rho}
| 51> Nuclei = all V {aiso,adip,aorb,fgrad,rho}
| 52> end
| 53>
| 54>                          ****END OF INPUT****

CARTESIAN COORDINATES (ANGSTROEM)
---------------------------------
  V     -1.104573    0.033536    0.159938
  S     -0.352509    2.314603   -0.329060
  S     -0.698048   -0.417973   -2.218122
  S     -0.019142    0.439577    2.317168
  S     -0.394492   -2.290724    0.433342
  O     -2.684154    0.089495    0.386008
  C     -0.586080   -2.187513   -2.283234
  C     -0.478529   -2.981996   -1.185250
  C      0.061367    2.978028    1.254507
  C      0.201959    2.195204    2.356954
  S     -0.721200   -2.831788   -3.961608
  S     -0.264184   -4.774025   -1.319371
  S      0.652084    2.855445    3.974693
  S      0.332785    4.761689    1.290252
  C      1.146598   -4.967174   -2.071659
  C      2.422463    3.423113    3.708194
  C      1.214228   -3.554033   -4.261760
  C      2.112741    4.903736    1.610954
  C      1.324726   -4.945201   -3.590435
  H      1.846693   -2.807877   -3.772517
  H      1.405126   -3.567930   -5.337021
  H      2.339554   -5.412319   -3.745393
  H      0.586222   -5.612017   -4.052878
  H      1.417235   -5.986242   -1.762302
  H      1.908667   -4.314898   -1.623455
  C      2.571643    4.802027    3.063605
  H      2.378008    5.893537    1.224870
  H      2.620640    4.162690    0.989184
  H      2.030284    5.539773    3.665817
  H      3.636767    5.085567    3.090274
  H      2.913177    2.650524    3.112755
  H      2.875888    3.424852    4.703978

 Total Charge           Charge          ....   -2
 Multiplicity           Mult            ....    2
 Number of Electrons    NEL             ....  233
 Basis Dimension        Dim             ....  517

ORBITAL ENERGIES
----------------
                 SPIN UP ORBITALS
  NO   OCC          E(Eh)            E(eV)
   0   1.0000    -196.640519     -5350.8605
   1   1.0000     -88.679176     -2413.0831
   2   1.0000     -88.677299     -2413.0320
   3   1.0000     -88.675910     -2412.9942
   4   1.0000     -88.670125     -2412.8368
   5   1.0000     -88.614204     -2411.3151
   6   1.0000     -88.612297     -2411.2632
   7   1.0000     -88.612258     -2411.2621
   8   1.0000     -88.611228     -2411.2341
   9   1.0000     -22.016334      -599.0949
  10   1.0000     -18.857592      -513.1412
  11   1.0000     -18.523158      -504.0408
  12   1.0000     -18.517388      -503.8837
  13   1.0000     -18.517340      -503.8824
  14   1.0000     -10.023370      -272.7498
  15   1.0000     -10.016724      -272.5689
  16   1.0000     -10.014186      -272.4998
  17   1.0000     -10.007728      -272.3241
  18   1.0000     -10.005520      -272.2640
  19   1.0000     -10.004820      -272.2450
  20   1.0000      -9.992351      -271.9057
  21   1.0000      -9.992078      -271.8983
  22   1.0000      -9.991368      -271.8789
  23   1.0000      -9.991318      -271.8776
  24   1.0000      -7.730442      -210.3560
  25   1.0000      -7.730164      -210.3484
  26   1.0000      -7.730145      -210.3479
  27   1.0000      -7.729546      -210.3316
  28   1.0000      -7.668737      -208.6769
  29   1.0000      -7.666747      -208.6228
  30   1.0000      -7.666661      -208.6205
  31   1.0000      -7.665570      -208.5908
  32   1.0000      -5.695737      -154.9889
  33   1.0000      -5.695697      -154.9878
  34   1.0000      -5.695339      -154.9780
  35   1.0000      -5.694404      -154.9526
  36   1.0000      -5.691918      -154.8850
  37   1.0000      -5.691865      -154.8835
  38   1.0000      -5.691413      -154.8712
  39   1.0000      -5.690052      -154.8342
  40   1.0000      -5.685171      -154.7014
  41   1.0000      -5.684912      -154.6943
  42   1.0000      -5.684732      -154.6894
  43   1.0000      -5.684305      -154.6778
  44   1.0000      -5.633538      -153.2964
  45   1.0000      -5.631587      -153.2433
  46   1.0000      -5.631509      -153.2411
  47   1.0000      -5.630438      -153.2120
  48   1.0000      -5.627107      -153.1214
  49   1.0000      -5.626828      -153.1138
  50   1.0000      -5.625179      -153.0689
  51   1.0000      -5.625117      -153.0672
  52   1.0000      -5.624733      -153.0568
  53   1.0000      -5.624638      -153.0542
  54   1.0000      -5.624037      -153.0378
  55   1.0000      -5.623484      -153.0228
  56   1.0000      -2.410029       -65.5802
  57   1.0000      -1.451387       -39.4943
  58   1.0000      -1.439832       -39.1798
  59   1.0000      -1.438712       -39.1493
  60   1.0000      -0.661678       -18.0052
  61   1.0000      -0.644322       -17.5329
  62   1.0000      -0.618634       -16.8339
  63   1.0000      -0.593854       -16.1596
  64   1.0000      -0.592869       -16.1328
  65   1.0000      -0.577398       -15.7118
  66   1.0000      -0.576165       -15.6782
  67   1.0000      -0.496165       -13.5013
  68   1.0000      -0.491211       -13.3665
  69   1.0000      -0.486754       -13.2452
  70   1.0000      -0.478330       -13.0160
  71   1.0000      -0.425721       -11.5845
  72   1.0000      -0.421697       -11.4750
  73   1.0000      -0.411343       -11.1932
  74   1.0000      -0.405785       -11.0420
  75   1.0000      -0.375645       -10.2218
  76   1.0000      -0.372072       -10.1246
  77   1.0000      -0.301209        -8.1963
  78   1.0000      -0.293153        -7.9771
  79   1.0000      -0.277842        -7.5605
  80   1.0000      -0.277224        -7.5437
  81   1.0000      -0.259013        -7.0481
  82   1.0000      -0.253660        -6.9024
  83   1.0000      -0.242649        -6.6028
  84   1.0000      -0.239015        -6.5039
  85   1.0000      -0.200929        -5.4676
  86   1.0000      -0.195265        -5.3134
  87   1.0000      -0.192688        -5.2433
  88   1.0000      -0.191282        -5.2051
  89   1.0000      -0.185380        -5.0444
  90   1.0000      -0.184713        -5.0263
  91   1.0000      -0.179901        -4.8953
  92   1.0000      -0.150137        -4.0854
  93   1.0000      -0.148952        -4.0532
  94   1.0000      -0.143441        -3.9032
  95   1.0000      -0.141994        -3.8639
  96   1.0000      -0.138153        -3.7593
  97   1.0000      -0.097442        -2.6515
  98   1.0000      -0.095218        -2.5910
  99   1.0000      -0.088956        -2.4206
 100   1.0000      -0.082415        -2.2426
 101   1.0000      -0.080439        -2.1889
 102   1.0000      -0.080386        -2.1874
 103   1.0000      -0.069503        -1.8913
 104   1.0000      -0.050065        -1.3623
 105   1.0000      -0.038489        -1.0473
 106   1.0000      -0.037375        -1.0170
 107   1.0000      -0.034955        -0.9512
 108   1.0000      -0.031501        -0.8572
 109   1.0000      -0.013383        -0.3642
 110   1.0000      -0.004512        -0.1228
 111   1.0000      -0.003271        -0.0890
 112   1.0000       0.006099         0.1660
 113   1.0000       0.010503         0.2858
 114   1.0000       0.015881         0.4321
 115   1.0000       0.033161         0.9024
 116   1.0000       0.059289         1.6133
 117   0.0000       0.170789         4.6474
 118   0.0000       0.191715         5.2168
 119   0.0000       0.196107         5.3363
 120   0.0000       0.196441         5.3454
 121   0.0000       0.210172         5.7191

                 SPIN DOWN ORBITALS
  NO   OCC          E(Eh)            E(eV)
   0   1.0000    -196.640660     -5350.8644
   1   1.0000     -88.679190     -2413.0834
   2   1.0000     -88.677312     -2413.0323
   3   1.0000     -88.675924     -2412.9946
   4   1.0000     -88.670138     -2412.8371
   5   1.0000     -88.614357     -2411.3192
   6   1.0000     -88.612457     -2411.2675
   7   1.0000     -88.612418     -2411.2665
   8   1.0000     -88.611394     -2411.2386
   9   1.0000     -22.001663      -598.6957
  10   1.0000     -18.861178      -513.2388
  11   1.0000     -18.518025      -503.9011
  12   1.0000     -18.501891      -503.4621
  13   1.0000     -18.501210      -503.4435
  14   1.0000     -10.023366      -272.7497
  15   1.0000     -10.016719      -272.5688
  16   1.0000     -10.014182      -272.4997
  17   1.0000     -10.007728      -272.3241
  18   1.0000     -10.005517      -272.2639
  19   1.0000     -10.004820      -272.2450
  20   1.0000      -9.992100      -271.8989
  21   1.0000      -9.991823      -271.8913
  22   1.0000      -9.991115      -271.8721
  23   1.0000      -9.991060      -271.8706
  24   1.0000      -7.730456      -210.3564
  25   1.0000      -7.730179      -210.3489
  26   1.0000      -7.730159      -210.3483
  27   1.0000      -7.729559      -210.3320
  28   1.0000      -7.668878      -208.6808
  29   1.0000      -7.666896      -208.6268
  30   1.0000      -7.666810      -208.6245
  31   1.0000      -7.665724      -208.5950
  32   1.0000      -5.695753      -154.9893
  33   1.0000      -5.695711      -154.9882
  34   1.0000      -5.695356      -154.9785
  35   1.0000      -5.694425      -154.9532
  36   1.0000      -5.691942      -154.8856
  37   1.0000      -5.691886      -154.8841
  38   1.0000      -5.691432      -154.8717
  39   1.0000      -5.690068      -154.8346
  40   1.0000      -5.685188      -154.7018
  41   1.0000      -5.684929      -154.6948
  42   1.0000      -5.684751      -154.6899
  43   1.0000      -5.684319      -154.6782
  44   1.0000      -5.633706      -153.3009
  45   1.0000      -5.631758      -153.2479
  46   1.0000      -5.631682      -153.2458
  47   1.0000      -5.630614      -153.2168
  48   1.0000      -5.627474      -153.1313
  49   1.0000      -5.626959      -153.1173
  50   1.0000      -5.625572      -153.0796
  51   1.0000      -5.625510      -153.0779
  52   1.0000      -5.624867      -153.0604
  53   1.0000      -5.624774      -153.0579
  54   1.0000      -5.624445      -153.0489
  55   1.0000      -5.623625      -153.0266
  56   1.0000      -2.365841       -64.3778
  57   1.0000      -1.432549       -38.9816
  58   1.0000      -1.378435       -37.5091
  59   1.0000      -1.377717       -37.4896
  60   1.0000      -0.661650       -18.0044
  61   1.0000      -0.644273       -17.5316
  62   1.0000      -0.626316       -17.0429
  63   1.0000      -0.593660       -16.1543
  64   1.0000      -0.592647       -16.1267
  65   1.0000      -0.577390       -15.7116
  66   1.0000      -0.576159       -15.6781
  67   1.0000      -0.496161       -13.5012
  68   1.0000      -0.491240       -13.3673
  69   1.0000      -0.486768       -13.2456
  70   1.0000      -0.478371       -13.0171
  71   1.0000      -0.425948       -11.5906
  72   1.0000      -0.421976       -11.4825
  73   1.0000      -0.411384       -11.1943
  74   1.0000      -0.405892       -11.0449
  75   1.0000      -0.375610       -10.2209
  76   1.0000      -0.372091       -10.1251
  77   1.0000      -0.301193        -8.1959
  78   1.0000      -0.293135        -7.9766
  79   1.0000      -0.277820        -7.5599
  80   1.0000      -0.277200        -7.5430
  81   1.0000      -0.258864        -7.0441
  82   1.0000      -0.253633        -6.9017
  83   1.0000      -0.242515        -6.5992
  84   1.0000      -0.238926        -6.5015
  85   1.0000      -0.200820        -5.4646
  86   1.0000      -0.194796        -5.3007
  87   1.0000      -0.192623        -5.2415
  88   1.0000      -0.191206        -5.2030
  89   1.0000      -0.185319        -5.0428
  90   1.0000      -0.184664        -5.0250
  91   1.0000      -0.177909        -4.8411
  92   1.0000      -0.149495        -4.0680
  93   1.0000      -0.148599        -4.0436
  94   1.0000      -0.143111        -3.8942
  95   1.0000      -0.141839        -3.8596
  96   1.0000      -0.137975        -3.7545
  97   1.0000      -0.095926        -2.6103
  98   1.0000      -0.094734        -2.5778
  99   1.0000      -0.089177        -2.4266
 100   1.0000      -0.082908        -2.2560
 101   1.0000      -0.081793        -2.2257
 102   1.0000      -0.080010        -2.1772
 103   1.0000      -0.070732        -1.9247
 104   1.0000      -0.045915        -1.2494
 105   1.0000      -0.038323        -1.0428
 106   1.0000      -0.036826        -1.0021
 107   1.0000      -0.034048        -0.9265
 108   1.0000      -0.031455        -0.8559
 109   1.0000      -0.012487        -0.3398
 110   1.0000      -0.005830        -0.1586
 111   1.0000      -0.002330        -0.0634
 112   1.0000       0.006995         0.1903
 113   1.0000       0.011399         0.3102
 114   1.0000       0.033415         0.9093
 115   1.0000       0.058498         1.5918
 116   0.0000       0.170939         4.6515
 117   0.0000       0.184902         5.0314
 118   0.0000       0.192564         5.2399
 119   0.0000       0.196192         5.3387
 120   0.0000       0.196756         5.3540

MULLIKEN ATOMIC CHARGES AND SPIN POPULATIONS
--------------------------------------------
   0 V :    0.447092    1.199294
   1 S :   -0.251542   -0.024199
   2 S :   -0.253964   -0.025255
   3 S :   -0.255521   -0.024244
   4 S :   -0.252259   -0.022714
   5 O :   -0.506137   -0.138938
   6 C :   -0.132957    0.008655
   7 C :   -0.096733    0.009132
   8 C :   -0.114280    0.008707
   9 C :   -0.117919    0.009073
  10 S :   -0.083775   -0.000380
  11 S :    0.007248   -0.000019
  12 S :   -0.050535   -0.000219
  13 S :   -0.038482   -0.000203
  14 C :   -0.346925    0.000417
  15 C :   -0.337480    0.000311
  16 C :   -0.338004    0.000288
  17 C :   -0.339354    0.000313
  18 C :   -0.063966    0.000121
  19 H :    0.146324   -0.000046
  20 H :    0.105818    0.000023
  21 H :    0.036611    0.000053
  22 H :    0.072980    0.000002
  23 H :    0.087858   -0.000003
  24 H :    0.139172   -0.000193
  25 C :   -0.083330    0.000137
  26 H :    0.100443    0.000025
  27 H :    0.146808   -0.000118
  28 H :    0.078376    0.000011
  29 H :    0.044343    0.000035
  30 H :    0.147247   -0.000098
  31 H :    0.102841    0.000031
Sum of atomic charges         :   -2.0000000

LOEWDIN ATOMIC CHARGES AND SPIN POPULATIONS
-------------------------------------------
   0 V :   -0.242800    1.153327
   1 S :    0.090420   -0.016468
   2 S :    0.081901   -0.017415
   3 S :    0.085925   -0.016386
   4 S :    0.097610   -0.015019
   5 O :   -0.350704   -0.124369
   6 C :   -0.559466    0.009785
   7 C :   -0.543258    0.010218
   8 C :   -0.551500    0.009797
   9 C :   -0.553964    0.010144
  10 S :    0.269615   -0.001157
  11 S :    0.423939   -0.000919
  12 S :    0.326680   -0.001054
  13 S :    0.347347   -0.001047
  14 C :   -0.374316    0.000139
  15 C :   -0.284752    0.000185
  16 C :   -0.238489    0.000218
  17 C :   -0.303399    0.000164
  18 C :   -0.188147   -0.000047
  19 H :    0.067462   -0.000005
  20 H :    0.046645    0.000013
  21 H :    0.047566    0.000021
  22 H :    0.052041    0.000012
  23 H :    0.051179   -0.000017
  24 H :    0.060647   -0.000073
  25 C :   -0.184916   -0.000040
  26 H :    0.047586    0.000006
  27 H :    0.065553   -0.000033
  28 H :    0.053403    0.000010
  29 H :    0.046818    0.000018
  30 H :    0.066294   -0.000022
  31 H :    0.047077    0.000012

  Mayer bond orders larger than 0.100000
B(  0-V ,  1-S ) :   0.7878 B(  0-V ,  2-S ) :   0.7954 B(  0-V ,  3-S ) :   0.7927
B(  0-V ,  4-S ) :   0.7807 B(  0-V ,  5-O ) :   2.1084 B(  1-S ,  8-C ) :   1.1418
B(  2-S ,  6-C ) :   1.1259 B(  3-S ,  9-C ) :   1.1328 B(  4-S ,  7-C ) :   1.1484
B(  6-C ,  7-C ) :   1.5109 B(  6-C , 10-S ) :   0.9985 B(  7-C , 11-S ) :   0.9154
B(  8-C ,  9-C ) :   1.5179 B(  8-C , 13-S ) :   0.9483 B(  9-C , 12-S ) :   0.9594
B( 10-S , 16-C ) :   0.9228 B( 11-S , 14-C ) :   1.1513 B( 12-S , 15-C ) :   0.9918
B( 13-S , 17-C ) :   1.0198 B( 14-C , 18-C ) :   0.8399 B( 14-C , 23-H ) :   0.9645
B( 14-C , 24-H ) :   0.9593 B( 15-C , 25-C ) :   0.8814 B( 15-C , 30-H ) :   0.9763
B( 15-C , 31-H ) :   0.9692 B( 16-C , 18-C ) :   0.8981 B( 16-C , 19-H ) :   0.9771
B( 16-C , 20-H ) :   0.9626 B( 17-C , 25-C ) :   0.8742 B( 17-C , 26-H ) :   0.9706
B( 17-C , 27-H ) :   0.9737 B( 18-C , 21-H ) :   0.9509 B( 18-C , 22-H ) :   0.9712
B( 25-C , 28-H ) :   0.9739 B( 25-C , 29-H ) :   0.9526

FINAL SINGLE POINT ENERGY     -4592.683184502822

DIPOLE MOMENT
-------------
                                X             Y             Z
Electronic contribution:    -26.45998       0.93460       3.73982
Nuclear contribution   :     29.46318      -1.04133      -4.02909
                        -----------------------------------------
Total Dipole Moment    :      3.00320      -0.10674      -0.28926
                        -----------------------------------------
Magnitude (a.u.)       :      3.01898
Magnitude (Debye)      :      7.67364

Rotational constants in cm-1:     0.012758     0.002548     0.002431
Rotational constants in MHz :   382.485790    76.384854    72.881083

                             ****ORCA TERMINATED NORMALLY****
TOTAL RUN TIME: 0 days 0 hours 27 minutes 46 seconds 234 msec
