                         Program Version 5.0.4 -  RELEASE  -
|  1> ! nofrozencore ReducedPop printbasis
|  2> ! B3LYP TZVP
|  3>
|  4> %basis
|  5> newgto V "CP(PPP)" end
|  6> end
|  7>
|  8> %pal
|  9> nprocs 8
| 10> end
| 11>
| 12> % sym SymThresh 1e-2 end
| 13> * xyz -2 2
| 14> V -1.087297455110051 -0.0782579697393189 0.36022729268128295
| 15> S -0.5958504990993106 -1.8646070442861455 -1.1903708366667032
| 16> S 0.3610971022305304 -1.3999320977125818 1.7699288314366663
| 17> S -0.9474251612930339 1.3596929744021238 -1.5754167997363029
| 18> S -0.013500743910920517 1.8228618705288104 1.394894290991277
| 19> O -2.606588047492484 -0.19182378669082564 0.8589349824439046
| 20> C 0.8312374912576075 -0.2352908155937474 3.007526592343281
| 21> C 0.6761406943181894 1.1062365509460765 2.8508377101886815
| 22> C -1.0183713061076203 -1.1296525160729167 -2.736210981344967
| 23> C -1.1644565007538257 0.21254474066927148 -2.89687994053723
| 24> S 1.5531201361732996 -0.9849332693538589 4.471931056163316
| 25> S 1.1754949538455999 2.3114809061166732 4.086038218054203
| 26> S -1.5614876122610144 0.9846908202544904 -4.469755575904674
| 27> S -1.2059139363928661 -2.3138688666761067 -4.074560199838688
| 28> C 3.0130871458318333 2.14096698663817 4.107857049560689
| 29> C -0.05915856262034387 0.6418735807519472 -5.484647985729291
| 30> C 3.305510405126936 -0.41017050866441274 4.407480033935212
| 31> C 0.21483716198880148 -1.9115211273675883 -5.180467412332399
| 32> C 3.574245914632625 0.9940078453354784 4.947748796347841
| 33> H 3.638327671889537 -0.5026448440230129 3.370533101804808
| 34> H 3.8608061479936056 -1.1411996547650867 5.003925057423106
| 35> H 4.667839741895762 1.1270032125766989 5.012921387890129
| 36> H 3.1816225008812187 1.0688642758661453 5.968958012702845
| 37> H 3.377025907427454 3.093895248374146 4.505382628765471
| 38> H 3.342739937921183 2.0645288193828386 3.068549004005214
| 39> C 0.012408444867061705 -0.7378142574546672 -6.1378873099283595
| 40> H 0.3848137235106828 -2.825684657956105 -5.758417354036813
| 41> H 1.0875829009014413 -1.7532428886277471 -4.5416615707629555
| 42> H -0.8979018740919092 -0.9054358643063779 -6.726124499772957
| 43> H 0.8574356987716658 -0.7318248619966253 -6.84763790767273
| 44> H 0.8099402565348295 0.8209906511402855 -4.846436377959123
| 45> H -0.06707797239749835 1.411730142717732 -6.262981007654997
| 46> *
| 47>
| 48> % eprnmr
| 49> gtensor true
| 50> Nuclei = all H {aiso,adip,aorb,fgrad,rho}
| 51> Nuclei = all V {aiso,adip,aorb,fgrad,rho}
| 52> end
| 53>
| 54>                          ****END OF INPUT****

CARTESIAN COORDINATES (ANGSTROEM)
---------------------------------
  V     -1.088394   -0.078333    0.360676
  S     -0.596947   -1.864682   -1.189922
  S      0.360001   -1.400007    1.770378
  S     -0.948521    1.359618   -1.574968
  S     -0.014597    1.822787    1.395343
  O     -2.607684   -0.191899    0.859384
  C      0.830141   -0.235366    3.007975
  C      0.675045    1.106162    2.851287
  C     -1.019467   -1.129727   -2.735762
  C     -1.165553    0.212470   -2.896431
  S      1.552024   -0.985008    4.472380
  S      1.174399    2.311406    4.086487
  S     -1.562584    0.984616   -4.469307
  S     -1.207010   -2.313944   -4.074111
  C      3.011991    2.140892    4.108306
  C     -0.060255    0.641799   -5.484199
  C      3.304414   -0.410245    4.407929
  C      0.213741   -1.911596   -5.180019
  C      3.573150    0.993933    4.948198
  H      3.637232   -0.502720    3.370982
  H      3.859710   -1.141275    5.004374
  H      4.666744    1.126928    5.013370
  H      3.180526    1.068789    5.969407
  H      3.375930    3.093820    4.505831
  H      3.341644    2.064454    3.068998
  C      0.011312   -0.737889   -6.137438
  H      0.383718   -2.825760   -5.757969
  H      1.086487   -1.753318   -4.541213
  H     -0.898998   -0.905511   -6.725676
  H      0.856340   -0.731900   -6.847189
  H      0.808844    0.820916   -4.845988
  H     -0.068174    1.411655   -6.262532

 Total Charge           Charge          ....   -2
 Multiplicity           Mult            ....    2
 Number of Electrons    NEL             ....  233
 Basis Dimension        Dim             ....  517

ORBITAL ENERGIES
----------------
                 SPIN UP ORBITALS
  NO   OCC          E(Eh)            E(eV)
   0   1.0000    -196.631050     -5350.6029
   1   1.0000     -88.674658     -2412.9601
   2   1.0000     -88.674608     -2412.9587
   3   1.0000     -88.674556     -2412.9573
   4   1.0000     -88.674543     -2412.9570
   5   1.0000     -88.609257     -2411.1805
   6   1.0000     -88.609209     -2411.1792
   7   1.0000     -88.609203     -2411.1790
   8   1.0000     -88.609137     -2411.1772
   9   1.0000     -22.007378      -598.8512
  10   1.0000     -18.849057      -512.9089
  11   1.0000     -18.514199      -503.7970
  12   1.0000     -18.508385      -503.6388
  13   1.0000     -18.508345      -503.6377
  14   1.0000     -10.013740      -272.4877
  15   1.0000     -10.013707      -272.4868
  16   1.0000     -10.013649      -272.4852
  17   1.0000     -10.013637      -272.4849
  18   1.0000     -10.003128      -272.1990
  19   1.0000     -10.003063      -272.1972
  20   1.0000      -9.988918      -271.8123
  21   1.0000      -9.988912      -271.8121
  22   1.0000      -9.988203      -271.7928
  23   1.0000      -9.988201      -271.7928
  24   1.0000      -7.728436      -210.3014
  25   1.0000      -7.728391      -210.3002
  26   1.0000      -7.728365      -210.2995
  27   1.0000      -7.728337      -210.2987
  28   1.0000      -7.664169      -208.5526
  29   1.0000      -7.664160      -208.5524
  30   1.0000      -7.664143      -208.5519
  31   1.0000      -7.664092      -208.5506
  32   1.0000      -5.693679      -154.9329
  33   1.0000      -5.693641      -154.9318
  34   1.0000      -5.693611      -154.9310
  35   1.0000      -5.693585      -154.9303
  36   1.0000      -5.689737      -154.8256
  37   1.0000      -5.689692      -154.8244
  38   1.0000      -5.689661      -154.8235
  39   1.0000      -5.689635      -154.8228
  40   1.0000      -5.683217      -154.6482
  41   1.0000      -5.683167      -154.6468
  42   1.0000      -5.683137      -154.6460
  43   1.0000      -5.683114      -154.6454
  44   1.0000      -5.628985      -153.1725
  45   1.0000      -5.628956      -153.1717
  46   1.0000      -5.628950      -153.1715
  47   1.0000      -5.628913      -153.1705
  48   1.0000      -5.622587      -152.9984
  49   1.0000      -5.622560      -152.9976
  50   1.0000      -5.622544      -152.9972
  51   1.0000      -5.622490      -152.9957
  52   1.0000      -5.622077      -152.9845
  53   1.0000      -5.622059      -152.9840
  54   1.0000      -5.622059      -152.9840
  55   1.0000      -5.621989      -152.9821
  56   1.0000      -2.401868       -65.3581
  57   1.0000      -1.442571       -39.2544
  58   1.0000      -1.432012       -38.9670
  59   1.0000      -1.431396       -38.9503
  60   1.0000      -0.642597       -17.4859
  61   1.0000      -0.642504       -17.4834
  62   1.0000      -0.611161       -16.6305
  63   1.0000      -0.592997       -16.1363
  64   1.0000      -0.592409       -16.1203
  65   1.0000      -0.575506       -15.6603
  66   1.0000      -0.575413       -15.6578
  67   1.0000      -0.490312       -13.3421
  68   1.0000      -0.488518       -13.2932
  69   1.0000      -0.487722       -13.2716
  70   1.0000      -0.486523       -13.2390
  71   1.0000      -0.422860       -11.5066
  72   1.0000      -0.418132       -11.3780
  73   1.0000      -0.412088       -11.2135
  74   1.0000      -0.405103       -11.0234
  75   1.0000      -0.375862       -10.2277
  76   1.0000      -0.371655       -10.1133
  77   1.0000      -0.291240        -7.9250
  78   1.0000      -0.291005        -7.9187
  79   1.0000      -0.276432        -7.5221
  80   1.0000      -0.276039        -7.5114
  81   1.0000      -0.261264        -7.1094
  82   1.0000      -0.253831        -6.9071
  83   1.0000      -0.241546        -6.5728
  84   1.0000      -0.237403        -6.4601
  85   1.0000      -0.195670        -5.3245
  86   1.0000      -0.191594        -5.2135
  87   1.0000      -0.190546        -5.1850
  88   1.0000      -0.190043        -5.1713
  89   1.0000      -0.183654        -4.9975
  90   1.0000      -0.183212        -4.9854
  91   1.0000      -0.182197        -4.9578
  92   1.0000      -0.149799        -4.0762
  93   1.0000      -0.145277        -3.9532
  94   1.0000      -0.142953        -3.8900
  95   1.0000      -0.140908        -3.8343
  96   1.0000      -0.140647        -3.8272
  97   1.0000      -0.097490        -2.6528
  98   1.0000      -0.092899        -2.5279
  99   1.0000      -0.085266        -2.3202
 100   1.0000      -0.080145        -2.1809
 101   1.0000      -0.076968        -2.0944
 102   1.0000      -0.073440        -1.9984
 103   1.0000      -0.065844        -1.7917
 104   1.0000      -0.047965        -1.3052
 105   1.0000      -0.040068        -1.0903
 106   1.0000      -0.034650        -0.9429
 107   1.0000      -0.034566        -0.9406
 108   1.0000      -0.033476        -0.9109
 109   1.0000      -0.007664        -0.2086
 110   1.0000      -0.003566        -0.0970
 111   1.0000      -0.003267        -0.0889
 112   1.0000       0.008268         0.2250
 113   1.0000       0.012260         0.3336
 114   1.0000       0.021923         0.5965
 115   1.0000       0.033117         0.9012
 116   1.0000       0.063920         1.7394
 117   0.0000       0.190699         5.1892
 118   0.0000       0.197899         5.3851
 119   0.0000       0.198114         5.3910
 120   0.0000       0.198327         5.3967
 121   0.0000       0.219503         5.9730

                 SPIN DOWN ORBITALS
  NO   OCC          E(Eh)            E(eV)
   0   1.0000    -196.631192     -5350.6067
   1   1.0000     -88.674670     -2412.9604
   2   1.0000     -88.674619     -2412.9591
   3   1.0000     -88.674568     -2412.9577
   4   1.0000     -88.674555     -2412.9573
   5   1.0000     -88.609421     -2411.1849
   6   1.0000     -88.609373     -2411.1836
   7   1.0000     -88.609367     -2411.1835
   8   1.0000     -88.609301     -2411.1817
   9   1.0000     -21.992840      -598.4556
  10   1.0000     -18.852471      -513.0018
  11   1.0000     -18.509177      -503.6603
  12   1.0000     -18.492698      -503.2119
  13   1.0000     -18.492626      -503.2099
  14   1.0000     -10.013733      -272.4875
  15   1.0000     -10.013700      -272.4866
  16   1.0000     -10.013641      -272.4850
  17   1.0000     -10.013630      -272.4847
  18   1.0000     -10.003128      -272.1990
  19   1.0000     -10.003063      -272.1972
  20   1.0000      -9.988641      -271.8047
  21   1.0000      -9.988634      -271.8046
  22   1.0000      -9.987927      -271.7853
  23   1.0000      -9.987925      -271.7853
  24   1.0000      -7.728449      -210.3018
  25   1.0000      -7.728404      -210.3006
  26   1.0000      -7.728378      -210.2998
  27   1.0000      -7.728349      -210.2991
  28   1.0000      -7.664321      -208.5568
  29   1.0000      -7.664312      -208.5565
  30   1.0000      -7.664295      -208.5561
  31   1.0000      -7.664245      -208.5547
  32   1.0000      -5.693694      -154.9333
  33   1.0000      -5.693655      -154.9322
  34   1.0000      -5.693626      -154.9314
  35   1.0000      -5.693600      -154.9307
  36   1.0000      -5.689755      -154.8261
  37   1.0000      -5.689709      -154.8249
  38   1.0000      -5.689678      -154.8240
  39   1.0000      -5.689653      -154.8233
  40   1.0000      -5.683233      -154.6486
  41   1.0000      -5.683183      -154.6473
  42   1.0000      -5.683154      -154.6465
  43   1.0000      -5.683131      -154.6458
  44   1.0000      -5.629159      -153.1772
  45   1.0000      -5.629131      -153.1764
  46   1.0000      -5.629124      -153.1763
  47   1.0000      -5.629087      -153.1753
  48   1.0000      -5.622980      -153.0091
  49   1.0000      -5.622952      -153.0083
  50   1.0000      -5.622936      -153.0079
  51   1.0000      -5.622883      -153.0064
  52   1.0000      -5.622221      -152.9884
  53   1.0000      -5.622206      -152.9880
  54   1.0000      -5.622203      -152.9879
  55   1.0000      -5.622134      -152.9860
  56   1.0000      -2.358031       -64.1653
  57   1.0000      -1.424137       -38.7527
  58   1.0000      -1.371353       -37.3164
  59   1.0000      -1.370378       -37.2899
  60   1.0000      -0.642531       -17.4842
  61   1.0000      -0.642436       -17.4816
  62   1.0000      -0.618431       -16.8284
  63   1.0000      -0.592804       -16.1310
  64   1.0000      -0.592169       -16.1137
  65   1.0000      -0.575482       -15.6597
  66   1.0000      -0.575389       -15.6571
  67   1.0000      -0.490300       -13.3417
  68   1.0000      -0.488484       -13.2923
  69   1.0000      -0.487715       -13.2714
  70   1.0000      -0.486501       -13.2384
  71   1.0000      -0.423071       -11.5123
  72   1.0000      -0.418420       -11.3858
  73   1.0000      -0.412086       -11.2134
  74   1.0000      -0.405174       -11.0253
  75   1.0000      -0.375815       -10.2264
  76   1.0000      -0.371683       -10.1140
  77   1.0000      -0.291203        -7.9240
  78   1.0000      -0.290988        -7.9182
  79   1.0000      -0.276395        -7.5211
  80   1.0000      -0.276015        -7.5107
  81   1.0000      -0.261001        -7.1022
  82   1.0000      -0.253791        -6.9060
  83   1.0000      -0.241441        -6.5699
  84   1.0000      -0.237315        -6.4577
  85   1.0000      -0.194958        -5.3051
  86   1.0000      -0.191539        -5.2120
  87   1.0000      -0.190458        -5.1826
  88   1.0000      -0.190015        -5.1706
  89   1.0000      -0.183464        -4.9923
  90   1.0000      -0.183143        -4.9836
  91   1.0000      -0.180369        -4.9081
  92   1.0000      -0.149488        -4.0678
  93   1.0000      -0.144630        -3.9356
  94   1.0000      -0.142548        -3.8789
  95   1.0000      -0.140712        -3.8290
  96   1.0000      -0.140502        -3.8233
  97   1.0000      -0.097025        -2.6402
  98   1.0000      -0.091140        -2.4800
  99   1.0000      -0.085108        -2.3159
 100   1.0000      -0.080167        -2.1815
 101   1.0000      -0.076491        -2.0814
 102   1.0000      -0.074879        -2.0376
 103   1.0000      -0.066687        -1.8146
 104   1.0000      -0.044737        -1.2173
 105   1.0000      -0.039171        -1.0659
 106   1.0000      -0.035118        -0.9556
 107   1.0000      -0.034456        -0.9376
 108   1.0000      -0.032389        -0.8813
 109   1.0000      -0.006749        -0.1836
 110   1.0000      -0.005027        -0.1368
 111   1.0000      -0.002246        -0.0611
 112   1.0000       0.009021         0.2455
 113   1.0000       0.013089         0.3562
 114   1.0000       0.033113         0.9010
 115   1.0000       0.063210         1.7200
 116   0.0000       0.191069         5.1993
 117   0.0000       0.191345         5.2068
 118   0.0000       0.197939         5.3862
 119   0.0000       0.198502         5.4015
 120   0.0000       0.198725         5.4076

MULLIKEN ATOMIC CHARGES AND SPIN POPULATIONS
--------------------------------------------
   0 V :    0.448123    1.194785
   1 S :   -0.244278   -0.026001
   2 S :   -0.244037   -0.025920
   3 S :   -0.244399   -0.025917
   4 S :   -0.244535   -0.025835
   5 O :   -0.535182   -0.132280
   6 C :   -0.117513    0.009620
   7 C :   -0.116024    0.009732
   8 C :   -0.116376    0.009777
   9 C :   -0.116565    0.009652
  10 S :   -0.043510    0.000009
  11 S :   -0.043432   -0.000016
  12 S :   -0.043397   -0.000026
  13 S :   -0.043466   -0.000044
  14 C :   -0.340585    0.000625
  15 C :   -0.340433    0.000640
  16 C :   -0.339725    0.000601
  17 C :   -0.340412    0.000662
  18 C :   -0.077919   -0.000002
  19 H :    0.145013   -0.000137
  20 H :    0.100489    0.000091
  21 H :    0.041506    0.000042
  22 H :    0.077847    0.000027
  23 H :    0.100505    0.000095
  24 H :    0.145311   -0.000140
  25 C :   -0.077541   -0.000014
  26 H :    0.100311    0.000104
  27 H :    0.145228   -0.000147
  28 H :    0.077797    0.000020
  29 H :    0.041492    0.000039
  30 H :    0.145446   -0.000143
  31 H :    0.100262    0.000100
Sum of atomic charges         :   -2.0000000

LOEWDIN ATOMIC CHARGES AND SPIN POPULATIONS
-------------------------------------------
   0 V :   -0.265263    1.145293
   1 S :    0.100907   -0.017035
   2 S :    0.100912   -0.016980
   3 S :    0.100604   -0.016965
   4 S :    0.100685   -0.016937
   5 O :   -0.371919   -0.118268
   6 C :   -0.556312    0.010695
   7 C :   -0.555871    0.010741
   8 C :   -0.555771    0.010733
   9 C :   -0.555966    0.010697
  10 S :    0.340255   -0.000827
  11 S :    0.340137   -0.000840
  12 S :    0.340195   -0.000849
  13 S :    0.340206   -0.000855
  14 C :   -0.294682    0.000319
  15 C :   -0.294739    0.000320
  16 C :   -0.294731    0.000306
  17 C :   -0.294862    0.000333
  18 C :   -0.185463   -0.000052
  19 H :    0.065209   -0.000016
  20 H :    0.046788    0.000048
  21 H :    0.046012    0.000032
  22 H :    0.053469    0.000011
  23 H :    0.046806    0.000050
  24 H :    0.065302   -0.000016
  25 C :   -0.185491   -0.000055
  26 H :    0.046773    0.000055
  27 H :    0.065217   -0.000017
  28 H :    0.053503    0.000009
  29 H :    0.046010    0.000033
  30 H :    0.065323   -0.000016
  31 H :    0.046758    0.000054

  Mayer bond orders larger than 0.100000
B(  0-V ,  1-S ) :   0.7924 B(  0-V ,  2-S ) :   0.7938 B(  0-V ,  3-S ) :   0.7937
B(  0-V ,  4-S ) :   0.7921 B(  0-V ,  5-O ) :   2.0721 B(  1-S ,  8-C ) :   1.1387
B(  2-S ,  6-C ) :   1.1385 B(  3-S ,  9-C ) :   1.1386 B(  4-S ,  7-C ) :   1.1387
B(  6-C ,  7-C ) :   1.5044 B(  6-C , 10-S ) :   0.9573 B(  7-C , 11-S ) :   0.9574
B(  8-C ,  9-C ) :   1.5047 B(  8-C , 13-S ) :   0.9572 B(  9-C , 12-S ) :   0.9573
B( 10-S , 16-C ) :   1.0060 B( 11-S , 14-C ) :   1.0061 B( 12-S , 15-C ) :   1.0063
B( 13-S , 17-C ) :   1.0066 B( 14-C , 18-C ) :   0.8765 B( 14-C , 23-H ) :   0.9701
B( 14-C , 24-H ) :   0.9755 B( 15-C , 25-C ) :   0.8763 B( 15-C , 30-H ) :   0.9754
B( 15-C , 31-H ) :   0.9701 B( 16-C , 18-C ) :   0.8765 B( 16-C , 19-H ) :   0.9754
B( 16-C , 20-H ) :   0.9701 B( 17-C , 25-C ) :   0.8763 B( 17-C , 26-H ) :   0.9701
B( 17-C , 27-H ) :   0.9753 B( 18-C , 21-H ) :   0.9513 B( 18-C , 22-H ) :   0.9728
B( 25-C , 28-H ) :   0.9729 B( 25-C , 29-H ) :   0.9513

FINAL SINGLE POINT ENERGY     -4592.720428677832

DIPOLE MOMENT
-------------
                                X             Y             Z
Electronic contribution:    -24.88581      -1.77465       8.26363
Nuclear contribution   :     27.76168       1.98117      -9.21701
                        -----------------------------------------
Total Dipole Moment    :      2.87587       0.20652      -0.95338
                        -----------------------------------------
Magnitude (a.u.)       :      3.03681
Magnitude (Debye)      :      7.71895

Rotational constants in cm-1:     0.012818     0.002656     0.002521
Rotational constants in MHz :   384.285119    79.621291    75.569881

                             ****ORCA TERMINATED NORMALLY****
TOTAL RUN TIME: 0 days 0 hours 27 minutes 46 seconds 910 msec
