                         Program Version 5.0.4 -  RELEASE  -
|  1> ! nofrozencore ReducedPop printbasis
|  2> ! B3LYP TZVP
|  3>
|  4> %basis
|  5> newgto V "CP(PPP)" end
|  6> end
|  7>
|  8> %pal
|  9> nprocs 4
| 10> end
| 11>
| 12> % sym SymThresh 1e-2 end
| 13> * xyz -2 2
| 14> V -0.06332156882279198 1.1050867637367552 0.1374527668024384
| 15> S -0.9334000587171114 0.5825464886521705 -2.0930300848697616
| 16> S -2.138444664866023 0.11903652577188997 0.9849874538125866
| 17> S 2.0987014370939905 0.5957297095795892 -0.8948990227421411
| 18> S 0.8910123650799034 0.16281580683426036 2.189218849579143
| 19> O -0.15487617092426031 2.6876039391578015 0.3285940831927891
| 20> C -1.781820993776717 -0.24036972188842273 2.677118704358631
| 21> C -0.5212535650781337 -0.21890082618769982 3.185242407998437
| 22> C 0.497747890793863 0.6274241785573149 -3.1297354237700254
| 23> C 1.7621067476690455 0.6325743742968017 -2.630408715580761
| 24> S -3.229274453542736 -0.6576909988926983 3.6823329416418593
| 25> S -0.15406275975790318 -0.6176233099017798 4.898965386004554
| 26> S 3.22643289270069 0.6404139663973879 -3.6849084451143734
| 27> S 0.1499574183384673 0.628038983069189 -4.900163580604599
| 28> C -0.5179553338531837 -2.40229142248089 4.998542309263049
| 29> C 3.1611433117517964 -1.0201844183260957 -4.493264594144166
| 30> C -2.9398695835593847 -2.4593259102887415 4.095736382249085
| 31> C 0.7554169877930785 -1.0284972248529851 -5.440731497492624
| 32> C -2.0660164582504086 -2.760243555900783 5.216297413081873
| 33> H -2.631593649247941 -2.795727653069001 3.0944939710035317
| 34> H -4.0857684609161 -2.5664383160319617 4.121152681321126
| 35> H -1.7827945720474696 -3.8371187800793964 5.559332912941452
| 36> H -2.5665262158978024 -2.245122960629118 6.056924917174329
| 37> H -0.15836890213409785 -3.0578467589534593 5.883455630611459
| 38> H -0.21996459061545404 -3.0123431903703417 4.122007699342495
| 39> C 2.2594522737152216 -1.1397776640775883 -5.7149581201682444
| 40> H 0.2175129070680023 -1.256587441322869 -6.366935864553175
| 41> H 0.4448979266735812 -1.7582061547947452 -4.689306211073065
| 42> H 2.556787068412304 -0.38136748383202834 -6.447369574704109
| 43> H 2.4235276335406977 -2.122618020695812 -6.1864041514345
| 44> H 2.880750307227668 -1.7335581414720618 -3.7155860771052835
| 45> H 4.203152320765646 -1.2132481276711848 -4.767207943700036
| 46> *
| 47>
| 48> % eprnmr
| 49> gtensor true
| 50> Nuclei = all H {aiso,adip,aorb,fgrad,rho}
| 51> Nuclei = all V {aiso,adip,aorb,fgrad,rho}
| 52> end
| 53>
| 54>                          ****END OF INPUT****

CARTESIAN COORDINATES (ANGSTROEM)
---------------------------------
  V     -0.063424    1.106249    0.137671
  S     -0.933503    0.583708   -2.092812
  S     -2.138547    0.120198    0.985206
  S      2.098599    0.596892   -0.894680
  S      0.890910    0.163978    2.189437
  O     -0.154979    2.688766    0.328813
  C     -1.781923   -0.239208    2.677337
  C     -0.521356   -0.217739    3.185461
  C      0.497645    0.628586   -3.129517
  C      1.762004    0.633736   -2.630190
  S     -3.229377   -0.656529    3.682551
  S     -0.154165   -0.616461    4.899184
  S      3.226330    0.641576   -3.684690
  S      0.149855    0.629201   -4.899945
  C     -0.518058   -2.401130    4.998761
  C      3.161041   -1.019023   -4.493046
  C     -2.939972   -2.458164    4.095955
  C      0.755315   -1.027335   -5.440513
  C     -2.066119   -2.759082    5.216516
  H     -2.631696   -2.794566    3.094713
  H     -4.085871   -2.565276    4.121371
  H     -1.782897   -3.835957    5.559551
  H     -2.566629   -2.243961    6.057143
  H     -0.158471   -3.056685    5.883674
  H     -0.220067   -3.011181    4.122226
  C      2.259350   -1.138616   -5.714740
  H      0.217410   -1.255426   -6.366717
  H      0.444795   -1.757044   -4.689088
  H      2.556685   -0.380206   -6.447151
  H      2.423425   -2.121456   -6.186186
  H      2.880648   -1.732396   -3.715368
  H      4.203050   -1.212086   -4.766989

 Total Charge           Charge          ....   -2
 Multiplicity           Mult            ....    2
 Number of Electrons    NEL             ....  233
 Basis Dimension        Dim             ....  517

ORBITAL ENERGIES
----------------
                 SPIN UP ORBITALS
  NO   OCC          E(Eh)            E(eV)
   0   1.0000    -196.641363     -5350.8835
   1   1.0000     -88.681682     -2413.1513
   2   1.0000     -88.678469     -2413.0638
   3   1.0000     -88.677214     -2413.0297
   4   1.0000     -88.677017     -2413.0243
   5   1.0000     -88.615137     -2411.3405
   6   1.0000     -88.612990     -2411.2821
   7   1.0000     -88.612832     -2411.2778
   8   1.0000     -88.612386     -2411.2656
   9   1.0000     -22.017172      -599.1177
  10   1.0000     -18.858409      -513.1634
  11   1.0000     -18.523992      -504.0634
  12   1.0000     -18.518223      -503.9065
  13   1.0000     -18.518185      -503.9054
  14   1.0000     -10.028955      -272.9017
  15   1.0000     -10.018415      -272.6149
  16   1.0000     -10.016250      -272.5560
  17   1.0000     -10.015571      -272.5375
  18   1.0000     -10.012912      -272.4652
  19   1.0000     -10.005168      -272.2545
  20   1.0000      -9.993818      -271.9456
  21   1.0000      -9.992755      -271.9167
  22   1.0000      -9.992615      -271.9129
  23   1.0000      -9.991906      -271.8936
  24   1.0000      -7.735200      -210.4855
  25   1.0000      -7.732071      -210.4003
  26   1.0000      -7.730864      -210.3675
  27   1.0000      -7.730663      -210.3620
  28   1.0000      -7.669572      -208.6997
  29   1.0000      -7.667384      -208.6401
  30   1.0000      -7.667257      -208.6367
  31   1.0000      -7.666855      -208.6257
  32   1.0000      -5.700566      -155.1203
  33   1.0000      -5.697332      -155.0323
  34   1.0000      -5.696530      -155.0105
  35   1.0000      -5.696113      -154.9991
  36   1.0000      -5.695906      -154.9935
  37   1.0000      -5.693348      -154.9239
  38   1.0000      -5.692217      -154.8931
  39   1.0000      -5.692016      -154.8876
  40   1.0000      -5.689854      -154.8288
  41   1.0000      -5.686828      -154.7465
  42   1.0000      -5.685607      -154.7132
  43   1.0000      -5.685418      -154.7081
  44   1.0000      -5.634410      -153.3201
  45   1.0000      -5.632229      -153.2608
  46   1.0000      -5.632096      -153.2571
  47   1.0000      -5.631712      -153.2467
  48   1.0000      -5.627963      -153.1447
  49   1.0000      -5.627592      -153.1346
  50   1.0000      -5.625837      -153.0868
  51   1.0000      -5.625709      -153.0833
  52   1.0000      -5.625369      -153.0741
  53   1.0000      -5.625265      -153.0712
  54   1.0000      -5.625249      -153.0708
  55   1.0000      -5.624812      -153.0589
  56   1.0000      -2.410865       -65.6030
  57   1.0000      -1.452220       -39.5169
  58   1.0000      -1.440658       -39.2023
  59   1.0000      -1.439565       -39.1725
  60   1.0000      -0.646158       -17.5829
  61   1.0000      -0.644409       -17.5353
  62   1.0000      -0.619413       -16.8551
  63   1.0000      -0.595854       -16.2140
  64   1.0000      -0.594277       -16.1711
  65   1.0000      -0.577445       -15.7131
  66   1.0000      -0.576498       -15.6873
  67   1.0000      -0.494765       -13.4633
  68   1.0000      -0.491163       -13.3652
  69   1.0000      -0.487841       -13.2748
  70   1.0000      -0.485925       -13.2227
  71   1.0000      -0.425202       -11.5703
  72   1.0000      -0.421711       -11.4753
  73   1.0000      -0.412516       -11.2251
  74   1.0000      -0.406468       -11.0606
  75   1.0000      -0.375979       -10.2309
  76   1.0000      -0.372306       -10.1310
  77   1.0000      -0.293337        -7.9821
  78   1.0000      -0.291754        -7.9390
  79   1.0000      -0.284605        -7.7445
  80   1.0000      -0.278250        -7.5716
  81   1.0000      -0.260817        -7.0972
  82   1.0000      -0.256376        -6.9763
  83   1.0000      -0.241521        -6.5721
  84   1.0000      -0.230677        -6.2770
  85   1.0000      -0.195604        -5.3227
  86   1.0000      -0.194531        -5.2935
  87   1.0000      -0.192708        -5.2438
  88   1.0000      -0.190934        -5.1956
  89   1.0000      -0.184931        -5.0322
  90   1.0000      -0.182140        -4.9563
  91   1.0000      -0.164513        -4.4766
  92   1.0000      -0.152097        -4.1388
  93   1.0000      -0.149909        -4.0792
  94   1.0000      -0.145342        -3.9549
  95   1.0000      -0.143391        -3.9019
  96   1.0000      -0.138796        -3.7768
  97   1.0000      -0.098372        -2.6768
  98   1.0000      -0.096926        -2.6375
  99   1.0000      -0.089831        -2.4444
 100   1.0000      -0.084447        -2.2979
 101   1.0000      -0.081422        -2.2156
 102   1.0000      -0.080913        -2.2017
 103   1.0000      -0.070626        -1.9218
 104   1.0000      -0.051149        -1.3918
 105   1.0000      -0.039740        -1.0814
 106   1.0000      -0.038886        -1.0581
 107   1.0000      -0.036893        -1.0039
 108   1.0000      -0.032928        -0.8960
 109   1.0000      -0.014404        -0.3919
 110   1.0000      -0.005601        -0.1524
 111   1.0000      -0.004396        -0.1196
 112   1.0000       0.004807         0.1308
 113   1.0000       0.009414         0.2562
 114   1.0000       0.015013         0.4085
 115   1.0000       0.032420         0.8822
 116   1.0000       0.058546         1.5931
 117   0.0000       0.176316         4.7978
 118   0.0000       0.190893         5.1945
 119   0.0000       0.196036         5.3344
 120   0.0000       0.196558         5.3486
 121   0.0000       0.210027         5.7151

                 SPIN DOWN ORBITALS
  NO   OCC          E(Eh)            E(eV)
   0   1.0000    -196.641505     -5350.8874
   1   1.0000     -88.681695     -2413.1516
   2   1.0000     -88.678482     -2413.0642
   3   1.0000     -88.677228     -2413.0300
   4   1.0000     -88.677030     -2413.0247
   5   1.0000     -88.615294     -2411.3447
   6   1.0000     -88.613151     -2411.2864
   7   1.0000     -88.612993     -2411.2821
   8   1.0000     -88.612547     -2411.2700
   9   1.0000     -22.002500      -598.7185
  10   1.0000     -18.861999      -513.2611
  11   1.0000     -18.518858      -503.9237
  12   1.0000     -18.502730      -503.4849
  13   1.0000     -18.502051      -503.4664
  14   1.0000     -10.028951      -272.9016
  15   1.0000     -10.018411      -272.6148
  16   1.0000     -10.016246      -272.5559
  17   1.0000     -10.015567      -272.5374
  18   1.0000     -10.012912      -272.4652
  19   1.0000     -10.005168      -272.2545
  20   1.0000      -9.993562      -271.9387
  21   1.0000      -9.992502      -271.9098
  22   1.0000      -9.992360      -271.9059
  23   1.0000      -9.991653      -271.8867
  24   1.0000      -7.735214      -210.4859
  25   1.0000      -7.732085      -210.4007
  26   1.0000      -7.730878      -210.3679
  27   1.0000      -7.730677      -210.3624
  28   1.0000      -7.669717      -208.7036
  29   1.0000      -7.667533      -208.6442
  30   1.0000      -7.667406      -208.6407
  31   1.0000      -7.667005      -208.6298
  32   1.0000      -5.700582      -155.1207
  33   1.0000      -5.697348      -155.0327
  34   1.0000      -5.696550      -155.0110
  35   1.0000      -5.696130      -154.9996
  36   1.0000      -5.695923      -154.9939
  37   1.0000      -5.693369      -154.9244
  38   1.0000      -5.692237      -154.8936
  39   1.0000      -5.692036      -154.8882
  40   1.0000      -5.689870      -154.8292
  41   1.0000      -5.686845      -154.7469
  42   1.0000      -5.685624      -154.7137
  43   1.0000      -5.685435      -154.7086
  44   1.0000      -5.634578      -153.3247
  45   1.0000      -5.632402      -153.2654
  46   1.0000      -5.632268      -153.2618
  47   1.0000      -5.631885      -153.2514
  48   1.0000      -5.628341      -153.1549
  49   1.0000      -5.627730      -153.1383
  50   1.0000      -5.626231      -153.0975
  51   1.0000      -5.626103      -153.0941
  52   1.0000      -5.625659      -153.0820
  53   1.0000      -5.625505      -153.0778
  54   1.0000      -5.625384      -153.0745
  55   1.0000      -5.624947      -153.0626
  56   1.0000      -2.366676       -64.4005
  57   1.0000      -1.433378       -39.0042
  58   1.0000      -1.379240       -37.5310
  59   1.0000      -1.378584       -37.5132
  60   1.0000      -0.646108       -17.5815
  61   1.0000      -0.644359       -17.5339
  62   1.0000      -0.627105       -17.0644
  63   1.0000      -0.595664       -16.2088
  64   1.0000      -0.594076       -16.1656
  65   1.0000      -0.577436       -15.7128
  66   1.0000      -0.576493       -15.6872
  67   1.0000      -0.494781       -13.4637
  68   1.0000      -0.491194       -13.3661
  69   1.0000      -0.487852       -13.2751
  70   1.0000      -0.485955       -13.2235
  71   1.0000      -0.425438       -11.5768
  72   1.0000      -0.422012       -11.4835
  73   1.0000      -0.412528       -11.2254
  74   1.0000      -0.406563       -11.0631
  75   1.0000      -0.375948       -10.2301
  76   1.0000      -0.372320       -10.1313
  77   1.0000      -0.293319        -7.9816
  78   1.0000      -0.291737        -7.9386
  79   1.0000      -0.284568        -7.7435
  80   1.0000      -0.278230        -7.5710
  81   1.0000      -0.260638        -7.0923
  82   1.0000      -0.256338        -6.9753
  83   1.0000      -0.241425        -6.5695
  84   1.0000      -0.230556        -6.2738
  85   1.0000      -0.195310        -5.3146
  86   1.0000      -0.194417        -5.2903
  87   1.0000      -0.192649        -5.2422
  88   1.0000      -0.190855        -5.1934
  89   1.0000      -0.184870        -5.0306
  90   1.0000      -0.180068        -4.8999
  91   1.0000      -0.164356        -4.4724
  92   1.0000      -0.151555        -4.1240
  93   1.0000      -0.149508        -4.0683
  94   1.0000      -0.145097        -3.9483
  95   1.0000      -0.143192        -3.8965
  96   1.0000      -0.138627        -3.7722
  97   1.0000      -0.097035        -2.6405
  98   1.0000      -0.096264        -2.6195
  99   1.0000      -0.090026        -2.4497
 100   1.0000      -0.084325        -2.2946
 101   1.0000      -0.083287        -2.2664
 102   1.0000      -0.080645        -2.1945
 103   1.0000      -0.071826        -1.9545
 104   1.0000      -0.047061        -1.2806
 105   1.0000      -0.039708        -1.0805
 106   1.0000      -0.038319        -1.0427
 107   1.0000      -0.035887        -0.9765
 108   1.0000      -0.032856        -0.8941
 109   1.0000      -0.013490        -0.3671
 110   1.0000      -0.006940        -0.1889
 111   1.0000      -0.003399        -0.0925
 112   1.0000       0.005635         0.1533
 113   1.0000       0.010308         0.2805
 114   1.0000       0.032678         0.8892
 115   1.0000       0.057755         1.5716
 116   0.0000       0.176622         4.8061
 117   0.0000       0.184040         5.0080
 118   0.0000       0.191779         5.2186
 119   0.0000       0.196258         5.3405
 120   0.0000       0.197146         5.3646

MULLIKEN ATOMIC CHARGES AND SPIN POPULATIONS
--------------------------------------------
   0 V :    0.447183    1.199431
   1 S :   -0.254638   -0.024397
   2 S :   -0.250926   -0.023450
   3 S :   -0.252376   -0.024318
   4 S :   -0.253263   -0.024129
   5 O :   -0.505670   -0.139099
   6 C :   -0.135645    0.008991
   7 C :   -0.099431    0.008608
   8 C :   -0.113625    0.008956
   9 C :   -0.118388    0.008876
  10 S :   -0.066419   -0.000267
  11 S :   -0.018897   -0.000061
  12 S :   -0.045750   -0.000213
  13 S :   -0.043215   -0.000215
  14 C :   -0.320553    0.000378
  15 C :   -0.337416    0.000293
  16 C :   -0.315367    0.000243
  17 C :   -0.338060    0.000323
  18 C :   -0.065387    0.000076
  19 H :    0.152909   -0.000084
  20 H :    0.082498    0.000048
  21 H :    0.024617    0.000076
  22 H :    0.072327    0.000008
  23 H :    0.071357   -0.000011
  24 H :    0.147496   -0.000087
  25 C :   -0.084665    0.000136
  26 H :    0.101586    0.000028
  27 H :    0.146625   -0.000109
  28 H :    0.078687    0.000011
  29 H :    0.044716    0.000036
  30 H :    0.147608   -0.000106
  31 H :    0.102080    0.000027
Sum of atomic charges         :   -2.0000000

LOEWDIN ATOMIC CHARGES AND SPIN POPULATIONS
-------------------------------------------
   0 V :   -0.242574    1.153404
   1 S :    0.087638   -0.016501
   2 S :    0.092928   -0.015825
   3 S :    0.088993   -0.016496
   4 S :    0.087258   -0.016418
   5 O :   -0.350281   -0.124523
   6 C :   -0.550319    0.010033
   7 C :   -0.557155    0.009939
   8 C :   -0.552761    0.009972
   9 C :   -0.552552    0.009974
  10 S :    0.326173   -0.001086
  11 S :    0.356689   -0.000954
  12 S :    0.336188   -0.001058
  13 S :    0.337743   -0.001048
  14 C :   -0.316710    0.000166
  15 C :   -0.292968    0.000168
  16 C :   -0.297779    0.000158
  17 C :   -0.294486    0.000179
  18 C :   -0.200031   -0.000043
  19 H :    0.066519   -0.000020
  20 H :    0.053965    0.000037
  21 H :    0.052792    0.000028
  22 H :    0.056514    0.000010
  23 H :    0.054111   -0.000017
  24 H :    0.067799   -0.000030
  25 C :   -0.184884   -0.000039
  26 H :    0.047529    0.000008
  27 H :    0.065935   -0.000028
  28 H :    0.053501    0.000011
  29 H :    0.046905    0.000018
  30 H :    0.066019   -0.000027
  31 H :    0.047300    0.000010

  Mayer bond orders larger than 0.100000
B(  0-V ,  1-S ) :   0.7898 B(  0-V ,  2-S ) :   0.7831 B(  0-V ,  3-S ) :   0.7923
B(  0-V ,  4-S ) :   0.7914 B(  0-V ,  5-O ) :   2.1088 B(  1-S ,  8-C ) :   1.1360
B(  2-S ,  6-C ) :   1.1458 B(  3-S ,  9-C ) :   1.1381 B(  4-S ,  7-C ) :   1.1293
B(  6-C ,  7-C ) :   1.5012 B(  6-C , 10-S ) :   0.9590 B(  7-C , 11-S ) :   0.9522
B(  8-C ,  9-C ) :   1.5181 B(  8-C , 13-S ) :   0.9534 B(  9-C , 12-S ) :   0.9549
B( 10-S , 16-C ) :   0.9536 B( 11-S , 14-C ) :   1.0026 B( 12-S , 15-C ) :   1.0032
B( 13-S , 17-C ) :   1.0064 B( 14-C , 18-C ) :   0.8203 B( 14-C , 23-H ) :   0.9585
B( 14-C , 24-H ) :   0.9671 B( 15-C , 25-C ) :   0.8810 B( 15-C , 30-H ) :   0.9755
B( 15-C , 31-H ) :   0.9706 B( 16-C , 18-C ) :   0.9186 B( 16-C , 19-H ) :   0.9807
B( 16-C , 20-H ) :   0.9709 B( 17-C , 25-C ) :   0.8750 B( 17-C , 26-H ) :   0.9696
B( 17-C , 27-H ) :   0.9748 B( 18-C , 21-H ) :   0.9531 B( 18-C , 22-H ) :   0.9633
B( 25-C , 28-H ) :   0.9739 B( 25-C , 29-H ) :   0.9527

FINAL SINGLE POINT ENERGY     -4592.674548655780

DIPOLE MOMENT
-------------
                                X             Y             Z
Electronic contribution:     -1.31748      26.61548       3.22216
Nuclear contribution   :      1.49478     -29.47828      -3.76377
                        -----------------------------------------
Total Dipole Moment    :      0.17730      -2.86280      -0.54161
                        -----------------------------------------
Magnitude (a.u.)       :      2.91897
Magnitude (Debye)      :      7.41944

Rotational constants in cm-1:     0.012768     0.002548     0.002431
Rotational constants in MHz :   382.760179    76.396930    72.880612

                             ****ORCA TERMINATED NORMALLY****
TOTAL RUN TIME: 0 days 0 hours 43 minutes 13 seconds 980 msec
