                         Program Version 5.0.4 -  RELEASE  -
|  1> ! nofrozencore ReducedPop printbasis
|  2> ! B3LYP TZVP
|  3>
|  4> %basis
|  5> newgto V "CP(PPP)" end
|  6> end
|  7>
|  8> %pal
|  9> nprocs 8
| 10> end
| 11>
| 12> % sym SymThresh 1e-2 end
| 13> * xyz -2 2
| 14> V -0.6760322887636255 -0.8625648699256971 -0.20757165473657369
| 15> S 0.7430207187034523 -0.5390254185266511 -2.1789319810587418
| 16> S 1.3389369608130746 -1.7280070207854714 0.8826354950407141
| 17> S -1.7774879798142076 1.1706449231821747 -1.0155786648890412
| 18> S -1.200053213322575 -0.04318363914139598 2.0422080285503896
| 19> O -1.6419783634228236 -2.097269054512363 -0.5104197355834954
| 20> C 0.9664500495540387 -1.638170640128417 2.608910786903847
| 21> C -0.09139776428181896 -0.9343580680615746 3.091855426394082
| 22> C -0.15727508440637128 0.6175465961856285 -3.169875440999932
| 23> C -1.2070404558500374 1.3290206321889533 -2.680207108080719
| 24> S 2.115721595106429 -2.527083512011024 3.678045786085912
| 25> S -0.454474260625806 -0.810314048310096 4.855078021835585
| 26> S -2.1072466372529046 2.5400336242504618 -3.6752443215819532
| 27> S 0.4486599158382026 0.803679626003048 -4.855933802965672
| 28> C 0.9692012366897008 0.1765785943395998 5.503162854964971
| 29> C -0.8226514754692711 3.8988213288449396 -3.9372024895285755
| 30> C 2.9750519117266023 -1.1696002829364183 4.583714084981626
| 31> C 1.1277265545755009 2.475379101352358 -4.865835744031468
| 32> C 2.2477117700906146 -0.6048026419759314 5.803317876750252
| 33> H 3.1914889242448004 -0.3742731231046399 3.8669851801207193
| 34> H 3.9306610678044014 -1.596464791356093 4.904712086060925
| 35> H 2.924347817091741 0.08414781877712936 6.334936106865468
| 36> H 2.0259219395270205 -1.4279169325915215 6.491242415505024
| 37> H 0.5855443989925705 0.6295791822197333 6.422669068047564
| 38> H 1.1444477280097598 0.9771381255539708 4.781291129074674
| 39> C 0.15604360755550564 3.6371395651759157 -5.080741511362196
| 40> H 1.8732761872411103 2.6502111852680446 -5.6697830302212235
| 41> H 1.657335910229485 2.835857805016597 -3.9490719067629363
| 42> H -0.25482651626168357 3.3642603440886485 -6.075455165077302
| 43> H 0.45662223715783834 4.753080274399548 -5.094517863159368
| 44> H -0.48629476154740603 3.9473068678680807 -2.8751009661225884
| 45> H -1.5537812158298399 4.713836991894928 -4.093400040403982
| 46> *
| 47>
| 48> % eprnmr
| 49> gtensor true
| 50> Nuclei = all H {aiso,adip,aorb,fgrad,rho}
| 51> Nuclei = all V {aiso,adip,aorb,fgrad,rho}
| 52> end
| 53>
| 54>                          ****END OF INPUT****

CARTESIAN COORDINATES (ANGSTROEM)
---------------------------------
  V     -0.676731   -0.863513   -0.207720
  S      0.742322   -0.539974   -2.179080
  S      1.338239   -1.728955    0.882488
  S     -1.778186    1.169697   -1.015727
  S     -1.200751   -0.044132    2.042060
  O     -1.642677   -2.098217   -0.510568
  C      0.965752   -1.639119    2.608763
  C     -0.092096   -0.935306    3.091707
  C     -0.157973    0.616598   -3.170023
  C     -1.207739    1.328072   -2.680355
  S      2.115023   -2.528032    3.677898
  S     -0.455173   -0.811262    4.854930
  S     -2.107945    2.539085   -3.675392
  S      0.447962    0.802731   -4.856082
  C      0.968503    0.175630    5.503015
  C     -0.823350    3.897873   -3.937350
  C      2.974354   -1.170549    4.583566
  C      1.127028    2.474431   -4.865984
  C      2.247014   -0.605751    5.803170
  H      3.190791   -0.375221    3.866837
  H      3.929963   -1.597413    4.904564
  H      2.923650    0.083199    6.334788
  H      2.025224   -1.428865    6.491094
  H      0.584846    0.628631    6.422521
  H      1.143749    0.976190    4.781143
  C      0.155345    3.636191   -5.080889
  H      1.872578    2.649263   -5.669931
  H      1.656638    2.834909   -3.949220
  H     -0.255525    3.363312   -6.075603
  H      0.455924    4.752132   -5.094666
  H     -0.486993    3.946359   -2.875249
  H     -1.554479    4.712889   -4.093548

 Total Charge           Charge          ....   -2
 Multiplicity           Mult            ....    2
 Number of Electrons    NEL             ....  233
 Basis Dimension        Dim             ....  517

ORBITAL ENERGIES
----------------
                 SPIN UP ORBITALS
  NO   OCC          E(Eh)            E(eV)
   0   1.0000    -196.640488     -5350.8597
   1   1.0000     -88.685737     -2413.2616
   2   1.0000     -88.677176     -2413.0286
   3   1.0000     -88.676249     -2413.0034
   4   1.0000     -88.669791     -2412.8277
   5   1.0000     -88.613102     -2411.2851
   6   1.0000     -88.612246     -2411.2618
   7   1.0000     -88.612119     -2411.2583
   8   1.0000     -88.612027     -2411.2558
   9   1.0000     -22.016297      -599.0939
  10   1.0000     -18.857543      -513.1398
  11   1.0000     -18.523121      -504.0398
  12   1.0000     -18.517345      -503.8826
  13   1.0000     -18.517309      -503.8816
  14   1.0000     -10.021463      -272.6979
  15   1.0000     -10.019739      -272.6510
  16   1.0000     -10.015647      -272.5396
  17   1.0000     -10.015504      -272.5357
  18   1.0000     -10.013209      -272.4733
  19   1.0000     -10.004865      -272.2462
  20   1.0000      -9.992697      -271.9151
  21   1.0000      -9.992081      -271.8984
  22   1.0000      -9.991765      -271.8898
  23   1.0000      -9.991367      -271.8789
  24   1.0000      -7.739302      -210.5971
  25   1.0000      -7.730805      -210.3659
  26   1.0000      -7.729902      -210.3413
  27   1.0000      -7.723631      -210.1707
  28   1.0000      -7.667523      -208.6439
  29   1.0000      -7.666673      -208.6208
  30   1.0000      -7.666590      -208.6185
  31   1.0000      -7.666475      -208.6154
  32   1.0000      -5.704770      -155.2347
  33   1.0000      -5.700536      -155.1195
  34   1.0000      -5.696062      -154.9977
  35   1.0000      -5.695139      -154.9726
  36   1.0000      -5.693950      -154.9403
  37   1.0000      -5.692156      -154.8914
  38   1.0000      -5.691256      -154.8670
  39   1.0000      -5.688647      -154.7959
  40   1.0000      -5.685551      -154.7117
  41   1.0000      -5.685048      -154.6980
  42   1.0000      -5.684657      -154.6874
  43   1.0000      -5.678492      -154.5196
  44   1.0000      -5.632342      -153.2638
  45   1.0000      -5.631514      -153.2413
  46   1.0000      -5.631427      -153.2389
  47   1.0000      -5.631356      -153.2370
  48   1.0000      -5.625947      -153.0898
  49   1.0000      -5.625538      -153.0787
  50   1.0000      -5.625111      -153.0671
  51   1.0000      -5.625014      -153.0644
  52   1.0000      -5.624907      -153.0615
  53   1.0000      -5.624671      -153.0551
  54   1.0000      -5.624562      -153.0521
  55   1.0000      -5.624426      -153.0484
  56   1.0000      -2.409988       -65.5791
  57   1.0000      -1.451348       -39.4932
  58   1.0000      -1.439770       -39.1781
  59   1.0000      -1.438691       -39.1488
  60   1.0000      -0.645564       -17.5667
  61   1.0000      -0.643958       -17.5230
  62   1.0000      -0.618576       -16.8323
  63   1.0000      -0.594534       -16.1781
  64   1.0000      -0.593804       -16.1582
  65   1.0000      -0.577443       -15.7130
  66   1.0000      -0.575967       -15.6729
  67   1.0000      -0.492639       -13.4054
  68   1.0000      -0.490455       -13.3460
  69   1.0000      -0.487671       -13.2702
  70   1.0000      -0.486548       -13.2397
  71   1.0000      -0.424291       -11.5455
  72   1.0000      -0.421056       -11.4575
  73   1.0000      -0.412083       -11.2133
  74   1.0000      -0.406251       -11.0547
  75   1.0000      -0.375631       -10.2215
  76   1.0000      -0.371720       -10.1150
  77   1.0000      -0.294881        -8.0241
  78   1.0000      -0.293002        -7.9730
  79   1.0000      -0.277870        -7.5612
  80   1.0000      -0.276623        -7.5273
  81   1.0000      -0.261649        -7.1198
  82   1.0000      -0.256057        -6.9677
  83   1.0000      -0.245471        -6.6796
  84   1.0000      -0.240962        -6.5569
  85   1.0000      -0.197195        -5.3659
  86   1.0000      -0.194012        -5.2793
  87   1.0000      -0.192065        -5.2264
  88   1.0000      -0.184901        -5.0314
  89   1.0000      -0.182869        -4.9761
  90   1.0000      -0.180730        -4.9179
  91   1.0000      -0.172831        -4.7030
  92   1.0000      -0.152456        -4.1485
  93   1.0000      -0.150504        -4.0954
  94   1.0000      -0.145727        -3.9654
  95   1.0000      -0.142880        -3.8880
  96   1.0000      -0.131057        -3.5662
  97   1.0000      -0.097993        -2.6665
  98   1.0000      -0.096325        -2.6211
  99   1.0000      -0.088713        -2.4140
 100   1.0000      -0.083085        -2.2609
 101   1.0000      -0.080909        -2.2017
 102   1.0000      -0.080174        -2.1816
 103   1.0000      -0.069407        -1.8886
 104   1.0000      -0.050529        -1.3750
 105   1.0000      -0.040429        -1.1001
 106   1.0000      -0.037820        -1.0291
 107   1.0000      -0.036275        -0.9871
 108   1.0000      -0.031502        -0.8572
 109   1.0000      -0.013552        -0.3688
 110   1.0000      -0.004666        -0.1270
 111   1.0000      -0.003462        -0.0942
 112   1.0000       0.005855         0.1593
 113   1.0000       0.010308         0.2805
 114   1.0000       0.015892         0.4325
 115   1.0000       0.033242         0.9046
 116   1.0000       0.059396         1.6162
 117   0.0000       0.186315         5.0699
 118   0.0000       0.194008         5.2792
 119   0.0000       0.195355         5.3159
 120   0.0000       0.196384         5.3439
 121   0.0000       0.211078         5.7437

                 SPIN DOWN ORBITALS
  NO   OCC          E(Eh)            E(eV)
   0   1.0000    -196.640629     -5350.8635
   1   1.0000     -88.685750     -2413.2619
   2   1.0000     -88.677189     -2413.0290
   3   1.0000     -88.676262     -2413.0038
   4   1.0000     -88.669804     -2412.8280
   5   1.0000     -88.613262     -2411.2894
   6   1.0000     -88.612406     -2411.2661
   7   1.0000     -88.612279     -2411.2627
   8   1.0000     -88.612186     -2411.2602
   9   1.0000     -22.001624      -598.6946
  10   1.0000     -18.861126      -513.2373
  11   1.0000     -18.517988      -503.9001
  12   1.0000     -18.501850      -503.4609
  13   1.0000     -18.501172      -503.4425
  14   1.0000     -10.021459      -272.6978
  15   1.0000     -10.019735      -272.6509
  16   1.0000     -10.015643      -272.5395
  17   1.0000     -10.015501      -272.5356
  18   1.0000     -10.013209      -272.4733
  19   1.0000     -10.004865      -272.2462
  20   1.0000      -9.992442      -271.9082
  21   1.0000      -9.991827      -271.8914
  22   1.0000      -9.991513      -271.8829
  23   1.0000      -9.991114      -271.8720
  24   1.0000      -7.739315      -210.5975
  25   1.0000      -7.730818      -210.3663
  26   1.0000      -7.729916      -210.3417
  27   1.0000      -7.723645      -210.1711
  28   1.0000      -7.667672      -208.6480
  29   1.0000      -7.666822      -208.6248
  30   1.0000      -7.666739      -208.6226
  31   1.0000      -7.666623      -208.6194
  32   1.0000      -5.704786      -155.2351
  33   1.0000      -5.700557      -155.1200
  34   1.0000      -5.696078      -154.9982
  35   1.0000      -5.695156      -154.9731
  36   1.0000      -5.693966      -154.9407
  37   1.0000      -5.692176      -154.8920
  38   1.0000      -5.691276      -154.8675
  39   1.0000      -5.688665      -154.7964
  40   1.0000      -5.685567      -154.7121
  41   1.0000      -5.685067      -154.6985
  42   1.0000      -5.684674      -154.6878
  43   1.0000      -5.678510      -154.5201
  44   1.0000      -5.632513      -153.2685
  45   1.0000      -5.631686      -153.2460
  46   1.0000      -5.631599      -153.2436
  47   1.0000      -5.631526      -153.2416
  48   1.0000      -5.626334      -153.1003
  49   1.0000      -5.625679      -153.0825
  50   1.0000      -5.625503      -153.0777
  51   1.0000      -5.625406      -153.0751
  52   1.0000      -5.625298      -153.0722
  53   1.0000      -5.624807      -153.0588
  54   1.0000      -5.624698      -153.0558
  55   1.0000      -5.624558      -153.0520
  56   1.0000      -2.365794       -64.3765
  57   1.0000      -1.432508       -38.9805
  58   1.0000      -1.378343       -37.5066
  59   1.0000      -1.377703       -37.4892
  60   1.0000      -0.645515       -17.5654
  61   1.0000      -0.643909       -17.5216
  62   1.0000      -0.626253       -17.0412
  63   1.0000      -0.594345       -16.1729
  64   1.0000      -0.593600       -16.1527
  65   1.0000      -0.577436       -15.7128
  66   1.0000      -0.575962       -15.6727
  67   1.0000      -0.492658       -13.4059
  68   1.0000      -0.490487       -13.3468
  69   1.0000      -0.487679       -13.2704
  70   1.0000      -0.486573       -13.2403
  71   1.0000      -0.424535       -11.5522
  72   1.0000      -0.421362       -11.4659
  73   1.0000      -0.412096       -11.2137
  74   1.0000      -0.406347       -11.0573
  75   1.0000      -0.375598       -10.2206
  76   1.0000      -0.371734       -10.1154
  77   1.0000      -0.294863        -8.0236
  78   1.0000      -0.292986        -7.9725
  79   1.0000      -0.277850        -7.5607
  80   1.0000      -0.276609        -7.5269
  81   1.0000      -0.261420        -7.1136
  82   1.0000      -0.256006        -6.9663
  83   1.0000      -0.245452        -6.6791
  84   1.0000      -0.240872        -6.5545
  85   1.0000      -0.196985        -5.3602
  86   1.0000      -0.193811        -5.2739
  87   1.0000      -0.191982        -5.2241
  88   1.0000      -0.184821        -5.0292
  89   1.0000      -0.180993        -4.9251
  90   1.0000      -0.180634        -4.9153
  91   1.0000      -0.172486        -4.6936
  92   1.0000      -0.152117        -4.1393
  93   1.0000      -0.149923        -4.0796
  94   1.0000      -0.145514        -3.9596
  95   1.0000      -0.142676        -3.8824
  96   1.0000      -0.130843        -3.5604
  97   1.0000      -0.096955        -2.6383
  98   1.0000      -0.095388        -2.5956
  99   1.0000      -0.088905        -2.4192
 100   1.0000      -0.083000        -2.2585
 101   1.0000      -0.082289        -2.2392
 102   1.0000      -0.080349        -2.1864
 103   1.0000      -0.070577        -1.9205
 104   1.0000      -0.046494        -1.2652
 105   1.0000      -0.040167        -1.0930
 106   1.0000      -0.037441        -1.0188
 107   1.0000      -0.035374        -0.9626
 108   1.0000      -0.031309        -0.8520
 109   1.0000      -0.012637        -0.3439
 110   1.0000      -0.006011        -0.1636
 111   1.0000      -0.002491        -0.0678
 112   1.0000       0.006720         0.1829
 113   1.0000       0.011211         0.3051
 114   1.0000       0.033498         0.9115
 115   1.0000       0.058604         1.5947
 116   0.0000       0.184872         5.0306
 117   0.0000       0.187385         5.0990
 118   0.0000       0.194439         5.2910
 119   0.0000       0.195654         5.3240
 120   0.0000       0.196622         5.3504

MULLIKEN ATOMIC CHARGES AND SPIN POPULATIONS
--------------------------------------------
   0 V :    0.447574    1.199402
   1 S :   -0.254369   -0.023933
   2 S :   -0.253300   -0.024150
   3 S :   -0.252100   -0.024163
   4 S :   -0.254242   -0.024109
   5 O :   -0.506240   -0.138945
   6 C :   -0.115623    0.008896
   7 C :   -0.117098    0.008830
   8 C :   -0.092208    0.008780
   9 C :   -0.143084    0.008900
  10 S :   -0.042709   -0.000165
  11 S :   -0.046633   -0.000202
  12 S :   -0.078557   -0.000233
  13 S :   -0.013388   -0.000153
  14 C :   -0.339127    0.000282
  15 C :   -0.324513    0.000251
  16 C :   -0.337218    0.000279
  17 C :   -0.311240    0.000364
  18 C :   -0.084252    0.000134
  19 H :    0.145752   -0.000103
  20 H :    0.101843    0.000022
  21 H :    0.044465    0.000039
  22 H :    0.078662    0.000018
  23 H :    0.101892    0.000022
  24 H :    0.148297   -0.000103
  25 C :   -0.101380    0.000117
  26 H :    0.095995    0.000034
  27 H :    0.128536   -0.000095
  28 H :    0.076757   -0.000012
  29 H :    0.035923    0.000052
  30 H :    0.164100   -0.000076
  31 H :    0.097485    0.000024
Sum of atomic charges         :   -2.0000000

LOEWDIN ATOMIC CHARGES AND SPIN POPULATIONS
-------------------------------------------
   0 V :   -0.242821    1.153392
   1 S :    0.086768   -0.016213
   2 S :    0.088394   -0.016349
   3 S :    0.090922   -0.016386
   4 S :    0.087762   -0.016352
   5 O :   -0.350706   -0.124378
   6 C :   -0.553358    0.010017
   7 C :   -0.552758    0.009925
   8 C :   -0.553606    0.009965
   9 C :   -0.552565    0.009970
  10 S :    0.339055   -0.001023
  11 S :    0.334523   -0.001048
  12 S :    0.302257   -0.001100
  13 S :    0.373306   -0.000994
  14 C :   -0.292859    0.000165
  15 C :   -0.293286    0.000193
  16 C :   -0.294607    0.000157
  17 C :   -0.318526    0.000164
  18 C :   -0.184903   -0.000036
  19 H :    0.065546   -0.000028
  20 H :    0.047427    0.000004
  21 H :    0.046851    0.000017
  22 H :    0.053420    0.000013
  23 H :    0.047216    0.000006
  24 H :    0.066394   -0.000027
  25 C :   -0.199636   -0.000048
  26 H :    0.051652    0.000005
  27 H :    0.065640   -0.000038
  28 H :    0.055931    0.000006
  29 H :    0.058916    0.000026
  30 H :    0.079469   -0.000017
  31 H :    0.048180    0.000015

  Mayer bond orders larger than 0.100000
B(  0-V ,  1-S ) :   0.7875 B(  0-V ,  2-S ) :   0.7914 B(  0-V ,  3-S ) :   0.7893
B(  0-V ,  4-S ) :   0.7882 B(  0-V ,  5-O ) :   2.1084 B(  1-S ,  8-C ) :   1.1350
B(  2-S ,  6-C ) :   1.1368 B(  3-S ,  9-C ) :   1.1375 B(  4-S ,  7-C ) :   1.1376
B(  6-C ,  7-C ) :   1.5175 B(  6-C , 10-S ) :   0.9517 B(  7-C , 11-S ) :   0.9557
B(  8-C ,  9-C ) :   1.5085 B(  8-C , 13-S ) :   0.9244 B(  9-C , 12-S ) :   0.9842
B( 10-S , 16-C ) :   1.0062 B( 11-S , 14-C ) :   1.0034 B( 12-S , 15-C ) :   0.9648
B( 13-S , 17-C ) :   1.0115 B( 14-C , 18-C ) :   0.8790 B( 14-C , 23-H ) :   0.9707
B( 14-C , 24-H ) :   0.9750 B( 15-C , 25-C ) :   0.8956 B( 15-C , 30-H ) :   0.9655
B( 15-C , 31-H ) :   0.9763 B( 16-C , 18-C ) :   0.8772 B( 16-C , 19-H ) :   0.9754
B( 16-C , 20-H ) :   0.9695 B( 17-C , 25-C ) :   0.8641 B( 17-C , 26-H ) :   0.9603
B( 17-C , 27-H ) :   0.9721 B( 18-C , 21-H ) :   0.9525 B( 18-C , 22-H ) :   0.9738
B( 25-C , 28-H ) :   0.9671 B( 25-C , 29-H ) :   0.9534

FINAL SINGLE POINT ENERGY     -4592.686627545014

DIPOLE MOMENT
-------------
                                X             Y             Z
Electronic contribution:    -15.83693     -20.96778      -5.06843
Nuclear contribution   :     17.65955      23.26968       5.69161
                        -----------------------------------------
Total Dipole Moment    :      1.82262       2.30190       0.62317
                        -----------------------------------------
Magnitude (a.u.)       :      3.00150
Magnitude (Debye)      :      7.62921

Rotational constants in cm-1:     0.012769     0.002548     0.002431
Rotational constants in MHz :   382.798648    76.397784    72.881838

                             ****ORCA TERMINATED NORMALLY****
TOTAL RUN TIME: 0 days 0 hours 27 minutes 32 seconds 608 msec
