                         Program Version 5.0.4 -  RELEASE  -
|  1> ! nofrozencore ReducedPop printbasis
|  2> ! B3LYP TZVP
|  3>
|  4> %basis
|  5> newgto V "CP(PPP)" end
|  6> end
|  7>
|  8> %pal
|  9> nprocs 8
| 10> end
| 11>
| 12> % sym SymThresh 1e-2 end
| 13> * xyz -2 2
| 14> V -0.06903694386925961 0.6004572011094914 -0.9374338148130504
| 15> S 2.1089085466770126 1.0761081922090132 0.08697546616316154
| 16> S 0.8760454085221181 -1.5856844868984843 -1.5044009312210647
| 17> S -0.9184399824413771 1.9710126339346528 0.9046118231590082
| 18> S -2.1566338129965983 -0.6709265421002989 -0.7292812999961605
| 19> O -0.1624520422276384 1.462852156785404 -2.277775989228388
| 20> C -0.2923017039626359 -2.675008965189866 -1.9170492073797643
| 21> C -1.5454737811341268 -2.263574528650959 -1.582415180274625
| 22> C 1.5065351572811163 2.489808567696954 1.2309819587483024
| 23> C 0.2571008587405225 2.8871106722350453 1.5965302009352635
| 24> S -0.07061121481370218 -4.126417286587837 -2.6352664149003235
| 25> S -3.1932350433601213 -3.332124628733887 -1.885362239849664
| 26> S 0.07083425849893504 4.1286383653301115 2.6283839868596472
| 27> S 3.196329747478645 3.325701172622248 1.897092263165951
| 28> C -2.895290255560532 -4.734601792928896 -0.764209095502478
| 29> C 0.6789136465812632 3.4973200898482677 4.2864422505865445
| 30> C -0.45874408792097343 -5.400026702172875 -1.3162788018001732
| 31> C 3.1116581958019784 2.884899441231883 3.658388509822919
| 32> C -1.930847888016115 -5.817575647742364 -1.2347023793225316
| 33> H -0.03714228928620984 -5.073949809534643 -0.3589736005668741
| 34> H 0.11492635286995492 -6.268387376887137 -1.6734255303215675
| 35> H -2.001215959417337 -6.663628757804818 -0.5318647910690844
| 36> H -2.230172132143071 -6.1952041692977815 -2.2194741783352248
| 37> H -3.8718892728764165 -5.168139857215359 -0.4998904855761343
| 38> H -2.485219701954799 -4.283497506914099 0.1475862320489244
| 39> C 2.1758770125548583 3.699548927153515 4.543467510271602
| 40> H 4.137288129331369 2.8938020960127018 4.0596316924645075
| 41> H 2.7706715823751624 1.8419848673711963 3.6702735060237996
| 42> H 2.3921938872439745 4.770171529170105 4.447191131668338
| 43> H 2.376194928430286 3.4250091342442444 5.591877873531456
| 44> H 0.3357832350723307 2.466908345870219 4.434803563211591
| 45> H 0.13174751568168877 4.152320720600265 4.9819095295148035
| 46> *
| 47>
| 48> % eprnmr
| 49> gtensor true
| 50> Nuclei = all H {aiso,adip,aorb,fgrad,rho}
| 51> Nuclei = all V {aiso,adip,aorb,fgrad,rho}
| 52> end
| 53>
| 54>                          ****END OF INPUT****

CARTESIAN COORDINATES (ANGSTROEM)
---------------------------------
  V     -0.069132    0.601028   -0.938470
  S      2.108813    1.076679    0.085939
  S      0.875950   -1.585114   -1.505437
  S     -0.918535    1.971583    0.903575
  S     -2.156729   -0.670356   -0.730318
  O     -0.162547    1.463423   -2.278812
  C     -0.292397   -2.674439   -1.918086
  C     -1.545569   -2.263004   -1.583452
  C      1.506440    2.490379    1.229945
  C      0.257006    2.887681    1.595494
  S     -0.070706   -4.125847   -2.636303
  S     -3.193330   -3.331554   -1.886399
  S      0.070739    4.129209    2.627347
  S      3.196235    3.326272    1.896056
  C     -2.895385   -4.734031   -0.765246
  C      0.678818    3.497891    4.285406
  C     -0.458839   -5.399456   -1.317315
  C      3.111563    2.885470    3.657352
  C     -1.930943   -5.817005   -1.235739
  H     -0.037237   -5.073379   -0.360010
  H      0.114831   -6.267817   -1.674462
  H     -2.001311   -6.663058   -0.532901
  H     -2.230267   -6.194634   -2.220511
  H     -3.871984   -5.167569   -0.500927
  H     -2.485315   -4.282927    0.146550
  C      2.175782    3.700119    4.542431
  H      4.137193    2.894373    4.058595
  H      2.770576    1.842555    3.669237
  H      2.392099    4.770742    4.446155
  H      2.376100    3.425580    5.590841
  H      0.335688    2.467479    4.433767
  H      0.131652    4.152891    4.980873

 Total Charge           Charge          ....   -2
 Multiplicity           Mult            ....    2
 Number of Electrons    NEL             ....  233
 Basis Dimension        Dim             ....  517

ORBITAL ENERGIES
----------------
                 SPIN UP ORBITALS
  NO   OCC          E(Eh)            E(eV)
   0   1.0000    -196.643707     -5350.9473
   1   1.0000     -88.676794     -2413.0182
   2   1.0000     -88.676514     -2413.0106
   3   1.0000     -88.670156     -2412.8376
   4   1.0000     -88.669122     -2412.8095
   5   1.0000     -88.622006     -2411.5274
   6   1.0000     -88.621515     -2411.5140
   7   1.0000     -88.607825     -2411.1415
   8   1.0000     -88.607559     -2411.1343
   9   1.0000     -22.019374      -599.1776
  10   1.0000     -18.860558      -513.2219
  11   1.0000     -18.526179      -504.1230
  12   1.0000     -18.520462      -503.9674
  13   1.0000     -18.520381      -503.9652
  14   1.0000     -10.019549      -272.6458
  15   1.0000     -10.019529      -272.6453
  16   1.0000     -10.011216      -272.4190
  17   1.0000     -10.010625      -272.4029
  18   1.0000     -10.004365      -272.2326
  19   1.0000     -10.004056      -272.2242
  20   1.0000     -10.004037      -272.2237
  21   1.0000     -10.003438      -272.2074
  22   1.0000      -9.984545      -271.6933
  23   1.0000      -9.984151      -271.6826
  24   1.0000      -7.733952      -210.4515
  25   1.0000      -7.733946      -210.4514
  26   1.0000      -7.722354      -210.1359
  27   1.0000      -7.721309      -210.1075
  28   1.0000      -7.673323      -208.8017
  29   1.0000      -7.673011      -208.7933
  30   1.0000      -7.666046      -208.6037
  31   1.0000      -7.666045      -208.6037
  32   1.0000      -5.699044      -155.0789
  33   1.0000      -5.699015      -155.0781
  34   1.0000      -5.694840      -154.9645
  35   1.0000      -5.694806      -154.9636
  36   1.0000      -5.688570      -154.7939
  37   1.0000      -5.688555      -154.7935
  38   1.0000      -5.687456      -154.7635
  39   1.0000      -5.686391      -154.7346
  40   1.0000      -5.684031      -154.6703
  41   1.0000      -5.682997      -154.6422
  42   1.0000      -5.677199      -154.4844
  43   1.0000      -5.676161      -154.4562
  44   1.0000      -5.638958      -153.4438
  45   1.0000      -5.638585      -153.4337
  46   1.0000      -5.631758      -153.2479
  47   1.0000      -5.631434      -153.2391
  48   1.0000      -5.631096      -153.2299
  49   1.0000      -5.630799      -153.2218
  50   1.0000      -5.630346      -153.2095
  51   1.0000      -5.630319      -153.2088
  52   1.0000      -5.624349      -153.0463
  53   1.0000      -5.624327      -153.0457
  54   1.0000      -5.623934      -153.0350
  55   1.0000      -5.623907      -153.0343
  56   1.0000      -2.413153       -65.6652
  57   1.0000      -1.454497       -39.5789
  58   1.0000      -1.443234       -39.2724
  59   1.0000      -1.441621       -39.2285
  60   1.0000      -0.653928       -17.7943
  61   1.0000      -0.652670       -17.7601
  62   1.0000      -0.621393       -16.9090
  63   1.0000      -0.614264       -16.7150
  64   1.0000      -0.613240       -16.6871
  65   1.0000      -0.565287       -15.3823
  66   1.0000      -0.564571       -15.3628
  67   1.0000      -0.501600       -13.6492
  68   1.0000      -0.500057       -13.6072
  69   1.0000      -0.477218       -12.9858
  70   1.0000      -0.475990       -12.9523
  71   1.0000      -0.431995       -11.7552
  72   1.0000      -0.430241       -11.7074
  73   1.0000      -0.404735       -11.0134
  74   1.0000      -0.400106       -10.8874
  75   1.0000      -0.376359       -10.2413
  76   1.0000      -0.373802       -10.1717
  77   1.0000      -0.294107        -8.0031
  78   1.0000      -0.294063        -8.0019
  79   1.0000      -0.281288        -7.6542
  80   1.0000      -0.281155        -7.6506
  81   1.0000      -0.254773        -6.9327
  82   1.0000      -0.250923        -6.8280
  83   1.0000      -0.242117        -6.5883
  84   1.0000      -0.239978        -6.5301
  85   1.0000      -0.197649        -5.3783
  86   1.0000      -0.192941        -5.2502
  87   1.0000      -0.190414        -5.1814
  88   1.0000      -0.188087        -5.1181
  89   1.0000      -0.185800        -5.0559
  90   1.0000      -0.185565        -5.0495
  91   1.0000      -0.182465        -4.9651
  92   1.0000      -0.162355        -4.4179
  93   1.0000      -0.157892        -4.2965
  94   1.0000      -0.155368        -4.2278
  95   1.0000      -0.136970        -3.7271
  96   1.0000      -0.134587        -3.6623
  97   1.0000      -0.100174        -2.7259
  98   1.0000      -0.094659        -2.5758
  99   1.0000      -0.088103        -2.3974
 100   1.0000      -0.086930        -2.3655
 101   1.0000      -0.083922        -2.2836
 102   1.0000      -0.083135        -2.2622
 103   1.0000      -0.071871        -1.9557
 104   1.0000      -0.049548        -1.3483
 105   1.0000      -0.039024        -1.0619
 106   1.0000      -0.037139        -1.0106
 107   1.0000      -0.026941        -0.7331
 108   1.0000      -0.025632        -0.6975
 109   1.0000      -0.011325        -0.3082
 110   1.0000      -0.003198        -0.0870
 111   1.0000      -0.002881        -0.0784
 112   1.0000       0.003468         0.0944
 113   1.0000       0.010006         0.2723
 114   1.0000       0.015228         0.4144
 115   1.0000       0.033158         0.9023
 116   1.0000       0.057946         1.5768
 117   0.0000       0.181236         4.9317
 118   0.0000       0.187733         5.1085
 119   0.0000       0.196079         5.3356
 120   0.0000       0.196140         5.3372
 121   0.0000       0.207763         5.6535

                 SPIN DOWN ORBITALS
  NO   OCC          E(Eh)            E(eV)
   0   1.0000    -196.643848     -5350.9511
   1   1.0000     -88.676804     -2413.0185
   2   1.0000     -88.676524     -2413.0109
   3   1.0000     -88.670166     -2412.8379
   4   1.0000     -88.669132     -2412.8097
   5   1.0000     -88.622199     -2411.5326
   6   1.0000     -88.621704     -2411.5192
   7   1.0000     -88.607958     -2411.1451
   8   1.0000     -88.607689     -2411.1378
   9   1.0000     -22.004651      -598.7770
  10   1.0000     -18.864167      -513.3201
  11   1.0000     -18.521018      -503.9825
  12   1.0000     -18.504904      -503.5440
  13   1.0000     -18.504208      -503.5251
  14   1.0000     -10.019548      -272.6458
  15   1.0000     -10.019528      -272.6452
  16   1.0000     -10.011212      -272.4189
  17   1.0000     -10.010620      -272.4028
  18   1.0000     -10.004365      -272.2326
  19   1.0000     -10.004056      -272.2242
  20   1.0000     -10.003695      -272.2144
  21   1.0000     -10.003099      -272.1982
  22   1.0000      -9.984360      -271.6882
  23   1.0000      -9.983967      -271.6776
  24   1.0000      -7.733962      -210.4518
  25   1.0000      -7.733957      -210.4517
  26   1.0000      -7.722364      -210.1362
  27   1.0000      -7.721319      -210.1078
  28   1.0000      -7.673504      -208.8066
  29   1.0000      -7.673188      -208.7981
  30   1.0000      -7.666169      -208.6071
  31   1.0000      -7.666165      -208.6070
  32   1.0000      -5.699058      -155.0793
  33   1.0000      -5.699030      -155.0785
  34   1.0000      -5.694861      -154.9651
  35   1.0000      -5.694827      -154.9641
  36   1.0000      -5.688574      -154.7940
  37   1.0000      -5.688559      -154.7936
  38   1.0000      -5.687466      -154.7638
  39   1.0000      -5.686401      -154.7348
  40   1.0000      -5.684042      -154.6706
  41   1.0000      -5.683007      -154.6425
  42   1.0000      -5.677218      -154.4850
  43   1.0000      -5.676181      -154.4567
  44   1.0000      -5.639174      -153.4497
  45   1.0000      -5.638798      -153.4395
  46   1.0000      -5.632229      -153.2608
  47   1.0000      -5.631897      -153.2517
  48   1.0000      -5.631248      -153.2341
  49   1.0000      -5.630948      -153.2259
  50   1.0000      -5.630488      -153.2134
  51   1.0000      -5.630458      -153.2126
  52   1.0000      -5.624678      -153.0553
  53   1.0000      -5.624651      -153.0545
  54   1.0000      -5.624046      -153.0381
  55   1.0000      -5.624013      -153.0372
  56   1.0000      -2.368840       -64.4594
  57   1.0000      -1.435566       -39.0637
  58   1.0000      -1.381852       -37.6021
  59   1.0000      -1.380334       -37.5608
  60   1.0000      -0.653833       -17.7917
  61   1.0000      -0.652581       -17.7576
  62   1.0000      -0.629090       -17.1184
  63   1.0000      -0.614230       -16.7141
  64   1.0000      -0.613191       -16.6858
  65   1.0000      -0.565235       -15.3808
  66   1.0000      -0.564519       -15.3613
  67   1.0000      -0.501670       -13.6511
  68   1.0000      -0.500135       -13.6094
  69   1.0000      -0.477165       -12.9843
  70   1.0000      -0.475942       -12.9510
  71   1.0000      -0.432126       -11.7588
  72   1.0000      -0.430379       -11.7112
  73   1.0000      -0.404928       -11.0186
  74   1.0000      -0.400337       -10.8937
  75   1.0000      -0.376297       -10.2395
  76   1.0000      -0.373805       -10.1718
  77   1.0000      -0.294086        -8.0025
  78   1.0000      -0.294037        -8.0011
  79   1.0000      -0.281271        -7.6538
  80   1.0000      -0.281140        -7.6502
  81   1.0000      -0.254573        -6.9273
  82   1.0000      -0.250867        -6.8264
  83   1.0000      -0.242034        -6.5861
  84   1.0000      -0.239910        -6.5283
  85   1.0000      -0.196871        -5.3571
  86   1.0000      -0.192902        -5.2491
  87   1.0000      -0.190229        -5.1764
  88   1.0000      -0.188023        -5.1164
  89   1.0000      -0.185635        -5.0514
  90   1.0000      -0.184468        -5.0196
  91   1.0000      -0.181930        -4.9506
  92   1.0000      -0.161937        -4.4065
  93   1.0000      -0.157553        -4.2872
  94   1.0000      -0.155060        -4.2194
  95   1.0000      -0.136665        -3.7188
  96   1.0000      -0.134302        -3.6545
  97   1.0000      -0.098688        -2.6854
  98   1.0000      -0.094238        -2.5644
  99   1.0000      -0.088395        -2.4053
 100   1.0000      -0.086471        -2.3530
 101   1.0000      -0.084978        -2.3124
 102   1.0000      -0.082604        -2.2478
 103   1.0000      -0.073250        -1.9932
 104   1.0000      -0.046795        -1.2734
 105   1.0000      -0.039074        -1.0632
 106   1.0000      -0.035590        -0.9685
 107   1.0000      -0.026822        -0.7299
 108   1.0000      -0.024062        -0.6548
 109   1.0000      -0.011101        -0.3021
 110   1.0000      -0.003722        -0.1013
 111   1.0000      -0.002029        -0.0552
 112   1.0000       0.004959         0.1349
 113   1.0000       0.010836         0.2949
 114   1.0000       0.033464         0.9106
 115   1.0000       0.057204         1.5566
 116   0.0000       0.180810         4.9201
 117   0.0000       0.182264         4.9597
 118   0.0000       0.189181         5.1479
 119   0.0000       0.196333         5.3425
 120   0.0000       0.196708         5.3527

MULLIKEN ATOMIC CHARGES AND SPIN POPULATIONS
--------------------------------------------
   0 V :    0.438635    1.199489
   1 S :   -0.261073   -0.031958
   2 S :   -0.230125   -0.018886
   3 S :   -0.229269   -0.018209
   4 S :   -0.261866   -0.031057
   5 O :   -0.501431   -0.139919
   6 C :   -0.110997    0.003712
   7 C :   -0.126526    0.015242
   8 C :   -0.128923    0.015577
   9 C :   -0.108765    0.003550
  10 S :   -0.007194    0.000760
  11 S :   -0.092070   -0.000178
  12 S :   -0.005267    0.000787
  13 S :   -0.096214   -0.000175
  14 C :   -0.340141    0.000297
  15 C :   -0.330445    0.000220
  16 C :   -0.331525    0.000187
  17 C :   -0.337366    0.000313
  18 C :   -0.079056    0.000141
  19 H :    0.144056   -0.000079
  20 H :    0.095744   -0.000030
  21 H :    0.045092    0.000054
  22 H :    0.077257    0.000017
  23 H :    0.102296    0.000105
  24 H :    0.146709   -0.000087
  25 C :   -0.080214    0.000142
  26 H :    0.101754    0.000115
  27 H :    0.145852   -0.000087
  28 H :    0.077056    0.000011
  29 H :    0.045172    0.000053
  30 H :    0.143826   -0.000083
  31 H :    0.095014   -0.000024
Sum of atomic charges         :   -2.0000000

LOEWDIN ATOMIC CHARGES AND SPIN POPULATIONS
-------------------------------------------
   0 V :   -0.240224    1.153137
   1 S :    0.040738   -0.022575
   2 S :    0.144942   -0.012157
   3 S :    0.148616   -0.011567
   4 S :    0.042585   -0.021860
   5 O :   -0.347414   -0.125356
   6 C :   -0.658860    0.006413
   7 C :   -0.450072    0.014511
   8 C :   -0.444323    0.014704
   9 C :   -0.664677    0.006330
  10 S :    0.411152   -0.000302
  11 S :    0.254892   -0.000825
  12 S :    0.415330   -0.000262
  13 S :    0.249142   -0.000803
  14 C :   -0.315063    0.000200
  15 C :   -0.276844    0.000080
  16 C :   -0.277655    0.000058
  17 C :   -0.316540    0.000205
  18 C :   -0.185151   -0.000022
  19 H :    0.066890   -0.000030
  20 H :    0.047439   -0.000025
  21 H :    0.047162    0.000022
  22 H :    0.053115    0.000014
  23 H :    0.048046    0.000067
  24 H :    0.064799    0.000003
  25 C :   -0.185246   -0.000024
  26 H :    0.047991    0.000075
  27 H :    0.064517    0.000006
  28 H :    0.053080    0.000012
  29 H :    0.047179    0.000024
  30 H :    0.067053   -0.000030
  31 H :    0.047401   -0.000022

  Mayer bond orders larger than 0.100000
B(  0-V ,  1-S ) :   0.7978 B(  0-V ,  2-S ) :   0.7807 B(  0-V ,  3-S ) :   0.7797
B(  0-V ,  4-S ) :   0.7981 B(  0-V ,  5-O ) :   2.1133 B(  1-S ,  8-C ) :   1.0852
B(  2-S ,  6-C ) :   1.1837 B(  3-S ,  9-C ) :   1.1851 B(  4-S ,  7-C ) :   1.0870
B(  6-C ,  7-C ) :   1.4427 B(  6-C , 10-S ) :   1.0677 B(  7-C , 11-S ) :   0.8786
B(  8-C ,  9-C ) :   1.4345 B(  8-C , 13-S ) :   0.8733 B(  9-C , 12-S ) :   1.0762
B( 10-S , 16-C ) :   0.9604 B( 11-S , 14-C ) :   1.0428 B( 12-S , 15-C ) :   0.9576
B( 13-S , 17-C ) :   1.0456 B( 14-C , 18-C ) :   0.8653 B( 14-C , 23-H ) :   0.9611
B( 14-C , 24-H ) :   0.9842 B( 15-C , 25-C ) :   0.8934 B( 15-C , 30-H ) :   0.9646
B( 15-C , 31-H ) :   0.9791 B( 16-C , 18-C ) :   0.8923 B( 16-C , 19-H ) :   0.9651
B( 16-C , 20-H ) :   0.9788 B( 17-C , 25-C ) :   0.8651 B( 17-C , 26-H ) :   0.9607
B( 17-C , 27-H ) :   0.9844 B( 18-C , 21-H ) :   0.9529 B( 18-C , 22-H ) :   0.9725
B( 25-C , 28-H ) :   0.9726 B( 25-C , 29-H ) :   0.9529

FINAL SINGLE POINT ENERGY     -4592.624592388028

DIPOLE MOMENT
-------------
                                X             Y             Z
Electronic contribution:     -1.68288      14.37665     -22.50104
Nuclear contribution   :      1.85089     -16.00444      25.01620
                        -----------------------------------------
Total Dipole Moment    :      0.16801      -1.62779       2.51516
                        -----------------------------------------
Magnitude (a.u.)       :      3.00066
Magnitude (Debye)      :      7.62707

Rotational constants in cm-1:     0.012749     0.002548     0.002430
Rotational constants in MHz :   382.200274    76.394039    72.855943

                             ****ORCA TERMINATED NORMALLY****
TOTAL RUN TIME: 0 days 0 hours 27 minutes 28 seconds 826 msec
