                         Program Version 5.0.4 -  RELEASE  -
|  1> ! nofrozencore ReducedPop printbasis
|  2> ! B3LYP TZVP
|  3>
|  4> %basis
|  5> newgto V "CP(PPP)" end
|  6> end
|  7>
|  8> %pal
|  9> nprocs 8
| 10> end
| 11>
| 12> % sym SymThresh 1e-2 end
| 13> * xyz -2 2
| 14> V -0.7605669552409249 -0.6135041962144476 -0.5378426092815752
| 15> S 0.6396388020188224 0.48120616273488204 -2.225012565713258
| 16> S 1.1847525110721369 -2.035606412362327 -0.10125444698699981
| 17> S -1.6777393572028885 1.6386898556221015 -0.24528351174845847
| 18> S -1.1534767022887196 -0.896918722363904 1.8649013044065472
| 19> O -1.847773888170216 -1.489105133533149 -1.3128049253828777
| 20> C 0.8608670455012308 -2.731371351218787 1.4924282902552604
| 21> C -0.11337583244825461 -2.253975615491474 2.311504305809422
| 22> C -0.16660732391640512 2.028599941236429 -2.508476912379895
| 23> C -1.1329624786792634 2.511566941585873 -1.683395191917787
| 24> S 1.9411071442553285 -4.098890940702439 1.9543129438325375
| 25> S -0.423283083650758 -2.936897793903799 3.953815349800381
| 26> S -1.9321674874559753 4.107233814720433 -1.9477923961998875
| 27> S 0.4186024740569935 2.9325512655716635 -3.9566988938504535
| 28> C 1.092286902237625 -2.4517061297277 4.905425110748278
| 29> C -0.5631546740130449 5.308297000465448 -1.6466776766707543
| 30> C 2.9226965914196343 -3.3929102546022096 3.341433766311286
| 31> C 1.2759051570119446 4.390772744111915 -3.2155030916415326
| 32> C 2.301883236504379 -3.3986926737206726 4.716670755106674
| 33> H 3.4633294318372156 -2.456364471636656 2.9983399160407544
| 34> H 3.9859202725714846 -3.785018570358681 3.2555786133061795
| 35> H 3.07868445549826 -3.10120235730454 5.439821599651053
| 36> H 2.020240268904239 -4.429697036828523 4.957056044504674
| 37> H 0.7710137746995728 -2.7267195325603346 5.94452840449791
| 38> H 1.4283376954978595 -1.5211350761185438 4.37764059971758
| 39> C 0.38054972174508284 5.565687790648881 -2.818396877333411
| 40> H 1.9668379960992155 4.724500147980781 -3.99558175745848
| 41> H 1.8312147864022448 4.02448732064967 -2.349726175270178
| 42> H -0.2061342079059907 5.883302462179947 -3.6872178585202064
| 43> H 1.0337255184912792 6.41066777960061 -2.546479126588617
| 44> H -0.02401503838066159 4.974485402593126 -0.7564179285100794
| 45> H -1.0601308229321587 6.238879102254951 -1.3515432743799378
| 46> *
| 47>
| 48> % eprnmr
| 49> gtensor true
| 50> Nuclei = all H {aiso,adip,aorb,fgrad,rho}
| 51> Nuclei = all V {aiso,adip,aorb,fgrad,rho}
| 52> end
| 53>
| 54>                          ****END OF INPUT****

CARTESIAN COORDINATES (ANGSTROEM)
---------------------------------
  V     -0.761357   -0.614219   -0.538366
  S      0.638849    0.480491   -2.225536
  S      1.183963   -2.036321   -0.101778
  S     -1.678529    1.637975   -0.245807
  S     -1.154266   -0.897634    1.864378
  O     -1.848563   -1.489820   -1.313328
  C      0.860077   -2.732086    1.491905
  C     -0.114165   -2.254691    2.310981
  C     -0.167397    2.027885   -2.509000
  C     -1.133752    2.510852   -1.683919
  S      1.940318   -4.099606    1.953790
  S     -0.424073   -2.937613    3.953292
  S     -1.932957    4.106519   -1.948316
  S      0.417813    2.931836   -3.957222
  C      1.091497   -2.452421    4.904902
  C     -0.563944    5.307582   -1.647201
  C      2.921907   -3.393625    3.340910
  C      1.275116    4.390058   -3.216026
  C      2.301094   -3.399408    4.716147
  H      3.462540   -2.457079    2.997817
  H      3.985131   -3.785734    3.255055
  H      3.077895   -3.101917    5.439298
  H      2.019451   -4.430412    4.956533
  H      0.770224   -2.727435    5.944005
  H      1.427548   -1.521850    4.377117
  C      0.379760    5.564973   -2.818920
  H      1.966048    4.723785   -3.996105
  H      1.830425    4.023772   -2.350250
  H     -0.206924    5.882587   -3.687741
  H      1.032936    6.409953   -2.547002
  H     -0.024805    4.973770   -0.756941
  H     -1.060920    6.238164   -1.352067

 Total Charge           Charge          ....   -2
 Multiplicity           Mult            ....    2
 Number of Electrons    NEL             ....  233
 Basis Dimension        Dim             ....  517

ORBITAL ENERGIES
----------------
                 SPIN UP ORBITALS
  NO   OCC          E(Eh)            E(eV)
   0   1.0000    -196.640281     -5350.8541
   1   1.0000     -88.679702     -2413.0974
   2   1.0000     -88.676668     -2413.0148
   3   1.0000     -88.676335     -2413.0057
   4   1.0000     -88.675096     -2412.9720
   5   1.0000     -88.612551     -2411.2701
   6   1.0000     -88.612059     -2411.2567
   7   1.0000     -88.612033     -2411.2560
   8   1.0000     -88.612030     -2411.2559
   9   1.0000     -22.016076      -599.0879
  10   1.0000     -18.857337      -513.1342
  11   1.0000     -18.522904      -504.0338
  12   1.0000     -18.517124      -503.8766
  13   1.0000     -18.517088      -503.8756
  14   1.0000     -10.024870      -272.7906
  15   1.0000     -10.020817      -272.6803
  16   1.0000     -10.015637      -272.5393
  17   1.0000     -10.015150      -272.5261
  18   1.0000     -10.005974      -272.2764
  19   1.0000     -10.004639      -272.2401
  20   1.0000      -9.992190      -271.9013
  21   1.0000      -9.991848      -271.8920
  22   1.0000      -9.991347      -271.8784
  23   1.0000      -9.991137      -271.8727
  24   1.0000      -7.733005      -210.4258
  25   1.0000      -7.730303      -210.3522
  26   1.0000      -7.730000      -210.3440
  27   1.0000      -7.728891      -210.3138
  28   1.0000      -7.666983      -208.6292
  29   1.0000      -7.666483      -208.6156
  30   1.0000      -7.666475      -208.6154
  31   1.0000      -7.666455      -208.6148
  32   1.0000      -5.698314      -155.0590
  33   1.0000      -5.695554      -154.9839
  34   1.0000      -5.695243      -154.9754
  35   1.0000      -5.694361      -154.9514
  36   1.0000      -5.694084      -154.9439
  37   1.0000      -5.691658      -154.8779
  38   1.0000      -5.691353      -154.8696
  39   1.0000      -5.690231      -154.8391
  40   1.0000      -5.687756      -154.7717
  41   1.0000      -5.685048      -154.6980
  42   1.0000      -5.684752      -154.6900
  43   1.0000      -5.683673      -154.6606
  44   1.0000      -5.631841      -153.2502
  45   1.0000      -5.631326      -153.2362
  46   1.0000      -5.631316      -153.2359
  47   1.0000      -5.631305      -153.2356
  48   1.0000      -5.625401      -153.0749
  49   1.0000      -5.624977      -153.0634
  50   1.0000      -5.624929      -153.0621
  51   1.0000      -5.624905      -153.0615
  52   1.0000      -5.624895      -153.0612
  53   1.0000      -5.624466      -153.0495
  54   1.0000      -5.624466      -153.0495
  55   1.0000      -5.624441      -153.0488
  56   1.0000      -2.409764       -65.5730
  57   1.0000      -1.451127       -39.4872
  58   1.0000      -1.439537       -39.1718
  59   1.0000      -1.438471       -39.1428
  60   1.0000      -0.644261       -17.5312
  61   1.0000      -0.643834       -17.5196
  62   1.0000      -0.618393       -16.8273
  63   1.0000      -0.594264       -16.1707
  64   1.0000      -0.593562       -16.1516
  65   1.0000      -0.575902       -15.6711
  66   1.0000      -0.575366       -15.6565
  67   1.0000      -0.491920       -13.3858
  68   1.0000      -0.489962       -13.3325
  69   1.0000      -0.487545       -13.2668
  70   1.0000      -0.486360       -13.2345
  71   1.0000      -0.424140       -11.5414
  72   1.0000      -0.420982       -11.4555
  73   1.0000      -0.412099       -11.2138
  74   1.0000      -0.406938       -11.0734
  75   1.0000      -0.376393       -10.2422
  76   1.0000      -0.373292       -10.1578
  77   1.0000      -0.306571        -8.3422
  78   1.0000      -0.292987        -7.9726
  79   1.0000      -0.283360        -7.7106
  80   1.0000      -0.277794        -7.5591
  81   1.0000      -0.259181        -7.0527
  82   1.0000      -0.251041        -6.8312
  83   1.0000      -0.240417        -6.5421
  84   1.0000      -0.224458        -6.1078
  85   1.0000      -0.206156        -5.6098
  86   1.0000      -0.194877        -5.3029
  87   1.0000      -0.192006        -5.2247
  88   1.0000      -0.187936        -5.1140
  89   1.0000      -0.184270        -5.0142
  90   1.0000      -0.179825        -4.8933
  91   1.0000      -0.168750        -4.5919
  92   1.0000      -0.151006        -4.1091
  93   1.0000      -0.148882        -4.0513
  94   1.0000      -0.142742        -3.8842
  95   1.0000      -0.141557        -3.8520
  96   1.0000      -0.130760        -3.5582
  97   1.0000      -0.097512        -2.6534
  98   1.0000      -0.094954        -2.5838
  99   1.0000      -0.089639        -2.4392
 100   1.0000      -0.083610        -2.2751
 101   1.0000      -0.080536        -2.1915
 102   1.0000      -0.080317        -2.1855
 103   1.0000      -0.069947        -1.9034
 104   1.0000      -0.050231        -1.3669
 105   1.0000      -0.039274        -1.0687
 106   1.0000      -0.037659        -1.0247
 107   1.0000      -0.035844        -0.9754
 108   1.0000      -0.031870        -0.8672
 109   1.0000      -0.013252        -0.3606
 110   1.0000      -0.004479        -0.1219
 111   1.0000      -0.003493        -0.0951
 112   1.0000       0.006041         0.1644
 113   1.0000       0.010452         0.2844
 114   1.0000       0.016111         0.4384
 115   1.0000       0.033337         0.9071
 116   1.0000       0.059527         1.6198
 117   0.0000       0.187016         5.0890
 118   0.0000       0.191609         5.2140
 119   0.0000       0.194340         5.2883
 120   0.0000       0.196443         5.3455
 121   0.0000       0.211114         5.7447

                 SPIN DOWN ORBITALS
  NO   OCC          E(Eh)            E(eV)
   0   1.0000    -196.640422     -5350.8579
   1   1.0000     -88.679715     -2413.0977
   2   1.0000     -88.676681     -2413.0152
   3   1.0000     -88.676348     -2413.0061
   4   1.0000     -88.675109     -2412.9724
   5   1.0000     -88.612711     -2411.2744
   6   1.0000     -88.612219     -2411.2611
   7   1.0000     -88.612193     -2411.2604
   8   1.0000     -88.612190     -2411.2603
   9   1.0000     -22.001409      -598.6888
  10   1.0000     -18.860910      -513.2315
  11   1.0000     -18.517776      -503.8943
  12   1.0000     -18.501631      -503.4550
  13   1.0000     -18.500957      -503.4366
  14   1.0000     -10.024867      -272.7905
  15   1.0000     -10.020813      -272.6802
  16   1.0000     -10.015633      -272.5392
  17   1.0000     -10.015146      -272.5260
  18   1.0000     -10.005974      -272.2764
  19   1.0000     -10.004639      -272.2401
  20   1.0000      -9.991936      -271.8944
  21   1.0000      -9.991594      -271.8851
  22   1.0000      -9.991095      -271.8715
  23   1.0000      -9.990885      -271.8658
  24   1.0000      -7.733019      -210.4261
  25   1.0000      -7.730317      -210.3526
  26   1.0000      -7.730014      -210.3444
  27   1.0000      -7.728905      -210.3142
  28   1.0000      -7.667131      -208.6332
  29   1.0000      -7.666632      -208.6197
  30   1.0000      -7.666623      -208.6194
  31   1.0000      -7.666603      -208.6189
  32   1.0000      -5.698330      -155.0594
  33   1.0000      -5.695571      -154.9844
  34   1.0000      -5.695260      -154.9759
  35   1.0000      -5.694381      -154.9520
  36   1.0000      -5.694101      -154.9444
  37   1.0000      -5.691678      -154.8784
  38   1.0000      -5.691373      -154.8701
  39   1.0000      -5.690251      -154.8396
  40   1.0000      -5.687773      -154.7722
  41   1.0000      -5.685065      -154.6985
  42   1.0000      -5.684769      -154.6904
  43   1.0000      -5.683689      -154.6610
  44   1.0000      -5.632012      -153.2548
  45   1.0000      -5.631497      -153.2408
  46   1.0000      -5.631487      -153.2405
  47   1.0000      -5.631476      -153.2402
  48   1.0000      -5.625790      -153.0855
  49   1.0000      -5.625321      -153.0728
  50   1.0000      -5.625297      -153.0721
  51   1.0000      -5.625286      -153.0718
  52   1.0000      -5.625111      -153.0671
  53   1.0000      -5.624602      -153.0532
  54   1.0000      -5.624601      -153.0532
  55   1.0000      -5.624575      -153.0525
  56   1.0000      -2.365586       -64.3709
  57   1.0000      -1.432311       -38.9752
  58   1.0000      -1.378130       -37.5008
  59   1.0000      -1.377494       -37.4835
  60   1.0000      -0.644212       -17.5299
  61   1.0000      -0.643784       -17.5182
  62   1.0000      -0.626045       -17.0356
  63   1.0000      -0.594074       -16.1656
  64   1.0000      -0.593357       -16.1461
  65   1.0000      -0.575897       -15.6709
  66   1.0000      -0.575360       -15.6563
  67   1.0000      -0.491944       -13.3865
  68   1.0000      -0.489997       -13.3335
  69   1.0000      -0.487549       -13.2669
  70   1.0000      -0.486381       -13.2351
  71   1.0000      -0.424372       -11.5477
  72   1.0000      -0.421277       -11.4635
  73   1.0000      -0.412124       -11.2145
  74   1.0000      -0.407043       -11.0762
  75   1.0000      -0.376348       -10.2410
  76   1.0000      -0.373319       -10.1585
  77   1.0000      -0.306565        -8.3421
  78   1.0000      -0.292970        -7.9721
  79   1.0000      -0.283334        -7.7099
  80   1.0000      -0.277774        -7.5586
  81   1.0000      -0.258997        -7.0477
  82   1.0000      -0.250904        -6.8274
  83   1.0000      -0.240333        -6.5398
  84   1.0000      -0.224433        -6.1071
  85   1.0000      -0.206130        -5.6091
  86   1.0000      -0.194568        -5.2945
  87   1.0000      -0.191854        -5.2206
  88   1.0000      -0.187498        -5.1021
  89   1.0000      -0.184221        -5.0129
  90   1.0000      -0.178077        -4.8457
  91   1.0000      -0.168635        -4.5888
  92   1.0000      -0.150348        -4.0912
  93   1.0000      -0.148551        -4.0423
  94   1.0000      -0.142537        -3.8786
  95   1.0000      -0.141330        -3.8458
  96   1.0000      -0.130600        -3.5538
  97   1.0000      -0.095974        -2.6116
  98   1.0000      -0.094479        -2.5709
  99   1.0000      -0.089775        -2.4429
 100   1.0000      -0.083584        -2.2744
 101   1.0000      -0.082240        -2.2379
 102   1.0000      -0.080057        -2.1785
 103   1.0000      -0.071240        -1.9385
 104   1.0000      -0.046143        -1.2556
 105   1.0000      -0.039153        -1.0654
 106   1.0000      -0.037167        -1.0114
 107   1.0000      -0.034842        -0.9481
 108   1.0000      -0.031796        -0.8652
 109   1.0000      -0.012343        -0.3359
 110   1.0000      -0.005825        -0.1585
 111   1.0000      -0.002486        -0.0676
 112   1.0000       0.006891         0.1875
 113   1.0000       0.011346         0.3087
 114   1.0000       0.033593         0.9141
 115   1.0000       0.058737         1.5983
 116   0.0000       0.185100         5.0368
 117   0.0000       0.188067         5.1176
 118   0.0000       0.191740         5.2175
 119   0.0000       0.194970         5.3054
 120   0.0000       0.196635         5.3507

MULLIKEN ATOMIC CHARGES AND SPIN POPULATIONS
--------------------------------------------
   0 V :    0.447351    1.199079
   1 S :   -0.254259   -0.024207
   2 S :   -0.255209   -0.023954
   3 S :   -0.253733   -0.024197
   4 S :   -0.253273   -0.023994
   5 O :   -0.506446   -0.138700
   6 C :   -0.107451    0.008857
   7 C :   -0.122157    0.008881
   8 C :   -0.115655    0.008932
   9 C :   -0.116152    0.008844
  10 S :   -0.020604   -0.000135
  11 S :   -0.043190   -0.000191
  12 S :   -0.044035   -0.000201
  13 S :   -0.045360   -0.000219
  14 C :   -0.337190    0.000288
  15 C :   -0.338858    0.000296
  16 C :   -0.364246    0.000220
  17 C :   -0.337322    0.000323
  18 C :   -0.075738    0.000171
  19 H :    0.123998   -0.000105
  20 H :    0.089832    0.000039
  21 H :    0.043366    0.000043
  22 H :    0.078944    0.000012
  23 H :    0.097518    0.000030
  24 H :    0.173861   -0.000133
  25 C :   -0.084448    0.000135
  26 H :    0.101902    0.000030
  27 H :    0.148011   -0.000112
  28 H :    0.078515    0.000011
  29 H :    0.044585    0.000035
  30 H :    0.146025   -0.000105
  31 H :    0.101420    0.000027
Sum of atomic charges         :   -2.0000000

LOEWDIN ATOMIC CHARGES AND SPIN POPULATIONS
-------------------------------------------
   0 V :   -0.243011    1.153112
   1 S :    0.087890   -0.016402
   2 S :    0.087820   -0.016190
   3 S :    0.088107   -0.016390
   4 S :    0.089485   -0.016281
   5 O :   -0.350888   -0.124151
   6 C :   -0.551920    0.010029
   7 C :   -0.557205    0.009928
   8 C :   -0.552869    0.009962
   9 C :   -0.552628    0.009965
  10 S :    0.347215   -0.000996
  11 S :    0.330743   -0.001042
  12 S :    0.337485   -0.001047
  13 S :    0.335913   -0.001053
  14 C :   -0.297641    0.000166
  15 C :   -0.295630    0.000167
  16 C :   -0.335334    0.000154
  17 C :   -0.292282    0.000179
  18 C :   -0.189845   -0.000035
  19 H :    0.068396   -0.000044
  20 H :    0.056675    0.000015
  21 H :    0.047766    0.000018
  22 H :    0.052236    0.000013
  23 H :    0.059427   -0.000002
  24 H :    0.088014   -0.000027
  25 C :   -0.184897   -0.000039
  26 H :    0.047468    0.000009
  27 H :    0.066756   -0.000027
  28 H :    0.053410    0.000010
  29 H :    0.046791    0.000018
  30 H :    0.065308   -0.000028
  31 H :    0.047247    0.000009

  Mayer bond orders larger than 0.100000
B(  0-V ,  1-S ) :   0.7889 B(  0-V ,  2-S ) :   0.7878 B(  0-V ,  3-S ) :   0.7910
B(  0-V ,  4-S ) :   0.7890 B(  0-V ,  5-O ) :   2.1082 B(  1-S ,  8-C ) :   1.1379
B(  2-S ,  6-C ) :   1.1337 B(  3-S ,  9-C ) :   1.1368 B(  4-S ,  7-C ) :   1.1392
B(  6-C ,  7-C ) :   1.5011 B(  6-C , 10-S ) :   0.9563 B(  7-C , 11-S ) :   0.9517
B(  8-C ,  9-C ) :   1.5180 B(  8-C , 13-S ) :   0.9531 B(  9-C , 12-S ) :   0.9543
B( 10-S , 16-C ) :   1.0321 B( 11-S , 14-C ) :   1.0203 B( 12-S , 15-C ) :   1.0042
B( 13-S , 17-C ) :   1.0067 B( 14-C , 18-C ) :   0.8668 B( 14-C , 23-H ) :   0.9644
B( 14-C , 24-H ) :   0.9696 B( 15-C , 25-C ) :   0.8802 B( 15-C , 30-H ) :   0.9745
B( 15-C , 31-H ) :   0.9698 B( 16-C , 18-C ) :   0.9117 B( 16-C , 19-H ) :   0.9496
B( 16-C , 20-H ) :   0.9573 B( 17-C , 25-C ) :   0.8764 B( 17-C , 26-H ) :   0.9702
B( 17-C , 27-H ) :   0.9754 B( 18-C , 21-H ) :   0.9497 B( 18-C , 22-H ) :   0.9756
B( 25-C , 28-H ) :   0.9740 B( 25-C , 29-H ) :   0.9525

FINAL SINGLE POINT ENERGY     -4592.683432679730

DIPOLE MOMENT
-------------
                                X             Y             Z
Electronic contribution:    -18.55125     -14.51749     -12.61743
Nuclear contribution   :     20.67147      16.18941      14.01075
                        -----------------------------------------
Total Dipole Moment    :      2.12022       1.67192       1.39332
                        -----------------------------------------
Magnitude (a.u.)       :      3.03842
Magnitude (Debye)      :      7.72305

Rotational constants in cm-1:     0.012770     0.002548     0.002431
Rotational constants in MHz :   382.824196    76.397417    72.881826

                             ****ORCA TERMINATED NORMALLY****
TOTAL RUN TIME: 0 days 0 hours 27 minutes 31 seconds 28 msec
