                         Program Version 5.0.4 -  RELEASE  -
|  1> ! nofrozencore ReducedPop printbasis
|  2> ! B3LYP TZVP
|  3>
|  4> %basis
|  5> newgto V "CP(PPP)" end
|  6> end
|  7>
|  8> %pal
|  9> nprocs 8
| 10> end
| 11>
| 12> % sym SymThresh 1e-2 end
| 13> * xyz -2 2
| 14> V 0.6440576552194852 -0.900751882632001 0.13400717311056431
| 15> S -1.1339828074388316 -1.0013435581579846 1.8181204495449832
| 16> S -1.1060557661300245 -1.458644676702673 -1.4860762187191068
| 17> S 1.5208915595632544 0.8750054520180405 1.5745039060186405
| 18> S 1.5671358239670186 0.39166932596260645 -1.732467975211147
| 19> O 1.5633970856294288 -2.191221133361781 0.3309142291457429
| 20> C -0.408316476422684 -0.978276423864245 -3.0403977386179504
| 21> C 0.7130741263268154 -0.21825537393636554 -3.1537479218054423
| 22> C -0.4585435548007858 -0.09856880193667941 3.181293895939579
| 23> C 0.6605189319192467 0.6698112143241916 3.1031063176555533
| 24> S -1.316765683255966 -1.599541992815537 -4.491605050981904
| 25> S 1.3846233887731298 0.2938620314012924 -4.727980511832417
| 26> S 1.2962141423840823 1.6041494532520464 4.474652702910994
| 27> S -1.3895020319159483 -0.3079099781076335 4.746358594088758
| 28> C 0.11186394836450506 1.422511906446976 -5.437013036656975
| 29> C 0.02076063199721226 2.877808789462595 4.846594252760582
| 30> C -2.013332251471586 -0.028003271790104325 -5.18029422382845
| 31> C -2.099204842783633 1.395655713423446 4.932895245349959
| 32> C -1.0769376967115738 0.7659912156911716 -6.111547341181162
| 33> H -2.515561624408482 0.5598253240041878 -4.39617355977991
| 34> H -2.7894239314757496 -0.4302373400685493 -5.857273581193567
| 35> H -1.678716207451533 1.5542141903598612 -6.592456817359412
| 36> H -0.7723884236689618 0.06953236028868795 -6.905227890806564
| 37> H 0.6222783864262359 2.181866895843648 -6.053842486345872
| 38> H -0.28556961207034476 1.9320101887754606 -4.544835759611431
| 39> C -1.1809637085237505 2.4237365268115676 5.638805721124574
| 40> H -2.830644364259338 1.168848654448249 5.752296682889224
| 41> H -2.6734824741529595 1.7319743789300046 4.037776340095621
| 42> H -0.9290688156950888 1.9488288016270148 6.603684987549069
| 43> H -1.797956815650095 3.3066257102478245 5.872315439408075
| 44> H -0.39643326197024376 3.0407225230773514 3.8243866596915557
| 45> H 0.5055226884480819 3.8336085710505485 5.165549777799649
| 46> *
| 47>
| 48> % eprnmr
| 49> gtensor true
| 50> Nuclei = all H {aiso,adip,aorb,fgrad,rho}
| 51> Nuclei = all V {aiso,adip,aorb,fgrad,rho}
| 52> end
| 53>
| 54>                          ****END OF INPUT****

CARTESIAN COORDINATES (ANGSTROEM)
---------------------------------
  V      0.644737   -0.901723    0.134069
  S     -1.133304   -1.002315    1.818183
  S     -1.105377   -1.459616   -1.486014
  S      1.521571    0.874034    1.574566
  S      1.567815    0.390698   -1.732406
  O      1.564076   -2.192192    0.330976
  C     -0.407637   -0.979248   -3.040336
  C      0.713753   -0.219227   -3.153686
  C     -0.457864   -0.099540    3.181356
  C      0.661198    0.668840    3.103168
  S     -1.316086   -1.600513   -4.491543
  S      1.385303    0.292891   -4.727918
  S      1.296893    1.603178    4.474715
  S     -1.388823   -0.308881    4.746421
  C      0.112543    1.421541   -5.436951
  C      0.021440    2.876837    4.846656
  C     -2.012653   -0.028975   -5.180232
  C     -2.098526    1.394684    4.932957
  C     -1.076258    0.765020   -6.111485
  H     -2.514882    0.558854   -4.396111
  H     -2.788745   -0.431209   -5.857211
  H     -1.678037    1.553243   -6.592395
  H     -0.771709    0.068561   -6.905166
  H      0.622958    2.180896   -6.053780
  H     -0.284890    1.931039   -4.544774
  C     -1.180284    2.422765    5.638868
  H     -2.829965    1.167877    5.752359
  H     -2.672803    1.731003    4.037838
  H     -0.928390    1.947857    6.603747
  H     -1.797278    3.305654    5.872378
  H     -0.395754    3.039751    3.824449
  H      0.506202    3.832637    5.165612

 Total Charge           Charge          ....   -2
 Multiplicity           Mult            ....    2
 Number of Electrons    NEL             ....  233
 Basis Dimension        Dim             ....  517

ORBITAL ENERGIES
----------------
                 SPIN UP ORBITALS
  NO   OCC          E(Eh)            E(eV)
   0   1.0000    -196.640266     -5350.8537
   1   1.0000     -88.679959     -2413.1044
   2   1.0000     -88.678658     -2413.0690
   3   1.0000     -88.675135     -2412.9731
   4   1.0000     -88.674461     -2412.9548
   5   1.0000     -88.613536     -2411.2969
   6   1.0000     -88.612926     -2411.2803
   7   1.0000     -88.611346     -2411.2373
   8   1.0000     -88.610995     -2411.2278
   9   1.0000     -22.016080      -599.0880
  10   1.0000     -18.857357      -513.1348
  11   1.0000     -18.522909      -504.0340
  12   1.0000     -18.517127      -503.8766
  13   1.0000     -18.517091      -503.8757
  14   1.0000     -10.022956      -272.7385
  15   1.0000     -10.019175      -272.6356
  16   1.0000     -10.017200      -272.5819
  17   1.0000     -10.015545      -272.5368
  18   1.0000     -10.007673      -272.3226
  19   1.0000     -10.005964      -272.2761
  20   1.0000      -9.993523      -271.9376
  21   1.0000      -9.992728      -271.9160
  22   1.0000      -9.990598      -271.8580
  23   1.0000      -9.989927      -271.8397
  24   1.0000      -7.732944      -210.4241
  25   1.0000      -7.731882      -210.3952
  26   1.0000      -7.729143      -210.3207
  27   1.0000      -7.728620      -210.3065
  28   1.0000      -7.667832      -208.6523
  29   1.0000      -7.667310      -208.6381
  30   1.0000      -7.665840      -208.5981
  31   1.0000      -7.665545      -208.5901
  32   1.0000      -5.698223      -155.0565
  33   1.0000      -5.697150      -155.0273
  34   1.0000      -5.694451      -154.9539
  35   1.0000      -5.694373      -154.9518
  36   1.0000      -5.693839      -154.9372
  37   1.0000      -5.693332      -154.9234
  38   1.0000      -5.690393      -154.8435
  39   1.0000      -5.689816      -154.8278
  40   1.0000      -5.687645      -154.7687
  41   1.0000      -5.686610      -154.7405
  42   1.0000      -5.683916      -154.6672
  43   1.0000      -5.683417      -154.6536
  44   1.0000      -5.632677      -153.2729
  45   1.0000      -5.632149      -153.2586
  46   1.0000      -5.630690      -153.2189
  47   1.0000      -5.630394      -153.2108
  48   1.0000      -5.626276      -153.0988
  49   1.0000      -5.625853      -153.0872
  50   1.0000      -5.625728      -153.0839
  51   1.0000      -5.625309      -153.0724
  52   1.0000      -5.624276      -153.0443
  53   1.0000      -5.623984      -153.0364
  54   1.0000      -5.623817      -153.0318
  55   1.0000      -5.623509      -153.0235
  56   1.0000      -2.409777       -65.5734
  57   1.0000      -1.451146       -39.4877
  58   1.0000      -1.439551       -39.1722
  59   1.0000      -1.438476       -39.1429
  60   1.0000      -0.644035       -17.5251
  61   1.0000      -0.643938       -17.5225
  62   1.0000      -0.618397       -16.8274
  63   1.0000      -0.594182       -16.1685
  64   1.0000      -0.593735       -16.1563
  65   1.0000      -0.575442       -15.6586
  66   1.0000      -0.574774       -15.6404
  67   1.0000      -0.491837       -13.3836
  68   1.0000      -0.489932       -13.3317
  69   1.0000      -0.486821       -13.2471
  70   1.0000      -0.485336       -13.2067
  71   1.0000      -0.422464       -11.4958
  72   1.0000      -0.419576       -11.4173
  73   1.0000      -0.411443       -11.1959
  74   1.0000      -0.405827       -11.0431
  75   1.0000      -0.374926       -10.2023
  76   1.0000      -0.371739       -10.1155
  77   1.0000      -0.292147        -7.9497
  78   1.0000      -0.290938        -7.9168
  79   1.0000      -0.279926        -7.6172
  80   1.0000      -0.278836        -7.5875
  81   1.0000      -0.260026        -7.0757
  82   1.0000      -0.254491        -6.9251
  83   1.0000      -0.239726        -6.5233
  84   1.0000      -0.236806        -6.4438
  85   1.0000      -0.196548        -5.3484
  86   1.0000      -0.194832        -5.3016
  87   1.0000      -0.190392        -5.1808
  88   1.0000      -0.186641        -5.0787
  89   1.0000      -0.183700        -4.9987
  90   1.0000      -0.181591        -4.9413
  91   1.0000      -0.178653        -4.8614
  92   1.0000      -0.154297        -4.1986
  93   1.0000      -0.150959        -4.1078
  94   1.0000      -0.149189        -4.0596
  95   1.0000      -0.138473        -3.7680
  96   1.0000      -0.132765        -3.6127
  97   1.0000      -0.098822        -2.6891
  98   1.0000      -0.095252        -2.5919
  99   1.0000      -0.090541        -2.4638
 100   1.0000      -0.082937        -2.2568
 101   1.0000      -0.080461        -2.1895
 102   1.0000      -0.080110        -2.1799
 103   1.0000      -0.069670        -1.8958
 104   1.0000      -0.050098        -1.3632
 105   1.0000      -0.039661        -1.0792
 106   1.0000      -0.036915        -1.0045
 107   1.0000      -0.036064        -0.9814
 108   1.0000      -0.032236        -0.8772
 109   1.0000      -0.013429        -0.3654
 110   1.0000      -0.004477        -0.1218
 111   1.0000      -0.003404        -0.0926
 112   1.0000       0.006015         0.1637
 113   1.0000       0.010387         0.2826
 114   1.0000       0.016150         0.4395
 115   1.0000       0.033389         0.9086
 116   1.0000       0.059549         1.6204
 117   0.0000       0.186679         5.0798
 118   0.0000       0.192943         5.2503
 119   0.0000       0.195617         5.3230
 120   0.0000       0.196919         5.3584
 121   0.0000       0.211265         5.7488

                 SPIN DOWN ORBITALS
  NO   OCC          E(Eh)            E(eV)
   0   1.0000    -196.640408     -5350.8575
   1   1.0000     -88.679972     -2413.1047
   2   1.0000     -88.678671     -2413.0693
   3   1.0000     -88.675148     -2412.9734
   4   1.0000     -88.674475     -2412.9551
   5   1.0000     -88.613697     -2411.3013
   6   1.0000     -88.613086     -2411.2847
   7   1.0000     -88.611505     -2411.2416
   8   1.0000     -88.611154     -2411.2321
   9   1.0000     -22.001410      -598.6888
  10   1.0000     -18.860943      -513.2324
  11   1.0000     -18.517777      -503.8943
  12   1.0000     -18.501634      -503.4551
  13   1.0000     -18.500955      -503.4366
  14   1.0000     -10.022952      -272.7384
  15   1.0000     -10.019172      -272.6355
  16   1.0000     -10.017197      -272.5818
  17   1.0000     -10.015542      -272.5367
  18   1.0000     -10.007672      -272.3226
  19   1.0000     -10.005964      -272.2761
  20   1.0000      -9.993269      -271.9307
  21   1.0000      -9.992473      -271.9090
  22   1.0000      -9.990345      -271.8511
  23   1.0000      -9.989674      -271.8329
  24   1.0000      -7.732958      -210.4245
  25   1.0000      -7.731895      -210.3956
  26   1.0000      -7.729157      -210.3210
  27   1.0000      -7.728634      -210.3068
  28   1.0000      -7.667981      -208.6564
  29   1.0000      -7.667459      -208.6422
  30   1.0000      -7.665988      -208.6021
  31   1.0000      -7.665692      -208.5941
  32   1.0000      -5.698241      -155.0570
  33   1.0000      -5.697167      -155.0278
  34   1.0000      -5.694472      -154.9545
  35   1.0000      -5.694389      -154.9522
  36   1.0000      -5.693855      -154.9377
  37   1.0000      -5.693352      -154.9240
  38   1.0000      -5.690413      -154.8440
  39   1.0000      -5.689836      -154.8283
  40   1.0000      -5.687662      -154.7691
  41   1.0000      -5.686626      -154.7410
  42   1.0000      -5.683933      -154.6677
  43   1.0000      -5.683434      -154.6541
  44   1.0000      -5.632848      -153.2776
  45   1.0000      -5.632321      -153.2632
  46   1.0000      -5.630862      -153.2235
  47   1.0000      -5.630566      -153.2155
  48   1.0000      -5.626664      -153.1093
  49   1.0000      -5.626117      -153.0944
  50   1.0000      -5.625994      -153.0911
  51   1.0000      -5.625448      -153.0762
  52   1.0000      -5.624666      -153.0550
  53   1.0000      -5.624375      -153.0470
  54   1.0000      -5.623951      -153.0355
  55   1.0000      -5.623640      -153.0270
  56   1.0000      -2.365588       -64.3709
  57   1.0000      -1.432310       -38.9751
  58   1.0000      -1.378138       -37.5011
  59   1.0000      -1.377492       -37.4835
  60   1.0000      -0.643985       -17.5237
  61   1.0000      -0.643887       -17.5210
  62   1.0000      -0.626079       -17.0365
  63   1.0000      -0.593998       -16.1635
  64   1.0000      -0.593529       -16.1507
  65   1.0000      -0.575436       -15.6584
  66   1.0000      -0.574766       -15.6402
  67   1.0000      -0.491860       -13.3842
  68   1.0000      -0.489967       -13.3327
  69   1.0000      -0.486829       -13.2473
  70   1.0000      -0.485362       -13.2074
  71   1.0000      -0.422703       -11.5023
  72   1.0000      -0.419883       -11.4256
  73   1.0000      -0.411453       -11.1962
  74   1.0000      -0.405925       -11.0458
  75   1.0000      -0.374886       -10.2012
  76   1.0000      -0.371756       -10.1160
  77   1.0000      -0.292128        -7.9492
  78   1.0000      -0.290919        -7.9163
  79   1.0000      -0.279909        -7.6167
  80   1.0000      -0.278820        -7.5871
  81   1.0000      -0.259804        -7.0696
  82   1.0000      -0.254439        -6.9236
  83   1.0000      -0.239648        -6.5211
  84   1.0000      -0.236752        -6.4424
  85   1.0000      -0.196303        -5.3417
  86   1.0000      -0.194776        -5.3001
  87   1.0000      -0.189948        -5.1688
  88   1.0000      -0.186478        -5.0743
  89   1.0000      -0.183586        -4.9956
  90   1.0000      -0.181154        -4.9294
  91   1.0000      -0.177266        -4.8236
  92   1.0000      -0.154046        -4.1918
  93   1.0000      -0.150362        -4.0916
  94   1.0000      -0.148963        -4.0535
  95   1.0000      -0.138148        -3.7592
  96   1.0000      -0.132584        -3.6078
  97   1.0000      -0.097740        -2.6596
  98   1.0000      -0.094381        -2.5682
  99   1.0000      -0.090553        -2.4641
 100   1.0000      -0.082941        -2.2569
 101   1.0000      -0.082131        -2.2349
 102   1.0000      -0.080049        -2.1783
 103   1.0000      -0.070853        -1.9280
 104   1.0000      -0.046042        -1.2529
 105   1.0000      -0.039444        -1.0733
 106   1.0000      -0.036569        -0.9951
 107   1.0000      -0.035015        -0.9528
 108   1.0000      -0.032171        -0.8754
 109   1.0000      -0.012527        -0.3409
 110   1.0000      -0.005787        -0.1575
 111   1.0000      -0.002356        -0.0641
 112   1.0000       0.006852         0.1864
 113   1.0000       0.011289         0.3072
 114   1.0000       0.033648         0.9156
 115   1.0000       0.058759         1.5989
 116   0.0000       0.184175         5.0116
 117   0.0000       0.188776         5.1369
 118   0.0000       0.193496         5.2653
 119   0.0000       0.195746         5.3265
 120   0.0000       0.197216         5.3665

MULLIKEN ATOMIC CHARGES AND SPIN POPULATIONS
--------------------------------------------
   0 V :    0.447216    1.199367
   1 S :   -0.252343   -0.024371
   2 S :   -0.253994   -0.024236
   3 S :   -0.255326   -0.023893
   4 S :   -0.254222   -0.023872
   5 O :   -0.506330   -0.138953
   6 C :   -0.119135    0.008978
   7 C :   -0.112607    0.008761
   8 C :   -0.116774    0.009076
   9 C :   -0.113357    0.008685
  10 S :   -0.044081   -0.000236
  11 S :   -0.039686   -0.000108
  12 S :   -0.034418   -0.000041
  13 S :   -0.042868   -0.000363
  14 C :   -0.352152    0.000284
  15 C :   -0.364271    0.000270
  16 C :   -0.332477    0.000242
  17 C :   -0.329449    0.000260
  18 C :   -0.076663    0.000166
  19 H :    0.145177   -0.000099
  20 H :    0.089490    0.000022
  21 H :    0.044930    0.000042
  22 H :    0.077026    0.000012
  23 H :    0.107663    0.000022
  24 H :    0.150439   -0.000108
  25 C :   -0.067313    0.000208
  26 H :    0.079028    0.000030
  27 H :    0.144219   -0.000102
  28 H :    0.074685   -0.000003
  29 H :    0.045813    0.000043
  30 H :    0.152858   -0.000112
  31 H :    0.108921    0.000031
Sum of atomic charges         :   -2.0000000

LOEWDIN ATOMIC CHARGES AND SPIN POPULATIONS
-------------------------------------------
   0 V :   -0.242942    1.153321
   1 S :    0.089394   -0.016536
   2 S :    0.087728   -0.016432
   3 S :    0.088241   -0.016106
   4 S :    0.088256   -0.016166
   5 O :   -0.350812   -0.124375
   6 C :   -0.544069    0.010078
   7 C :   -0.563044    0.009898
   8 C :   -0.538435    0.010041
   9 C :   -0.569764    0.009883
  10 S :    0.331461   -0.001065
  11 S :    0.343973   -0.000995
  12 S :    0.348445   -0.000960
  13 S :    0.328166   -0.001147
  14 C :   -0.302684    0.000171
  15 C :   -0.311567    0.000177
  16 C :   -0.292766    0.000152
  17 C :   -0.295895    0.000170
  18 C :   -0.185598   -0.000035
  19 H :    0.065132   -0.000031
  20 H :    0.046712    0.000003
  21 H :    0.047283    0.000018
  22 H :    0.053209    0.000012
  23 H :    0.050762    0.000005
  24 H :    0.070838   -0.000026
  25 C :   -0.186822   -0.000037
  26 H :    0.047419    0.000008
  27 H :    0.066600   -0.000035
  28 H :    0.052886    0.000010
  29 H :    0.048025    0.000019
  30 H :    0.075654   -0.000027
  31 H :    0.054212    0.000007

  Mayer bond orders larger than 0.100000
B(  0-V ,  1-S ) :   0.7841 B(  0-V ,  2-S ) :   0.7882 B(  0-V ,  3-S ) :   0.7940
B(  0-V ,  4-S ) :   0.7905 B(  0-V ,  5-O ) :   2.1083 B(  1-S ,  8-C ) :   1.1435
B(  2-S ,  6-C ) :   1.1385 B(  3-S ,  9-C ) :   1.1293 B(  4-S ,  7-C ) :   1.1344
B(  6-C ,  7-C ) :   1.5160 B(  6-C , 10-S ) :   0.9447 B(  7-C , 11-S ) :   0.9635
B(  8-C ,  9-C ) :   1.5139 B(  8-C , 13-S ) :   0.9368 B(  9-C , 12-S ) :   0.9712
B( 10-S , 16-C ) :   1.0295 B( 11-S , 14-C ) :   0.9914 B( 12-S , 15-C ) :   0.9911
B( 13-S , 17-C ) :   1.0458 B( 14-C , 18-C ) :   0.8778 B( 14-C , 23-H ) :   0.9599
B( 14-C , 24-H ) :   0.9863 B( 15-C , 25-C ) :   0.8751 B( 15-C , 30-H ) :   0.9914
B( 15-C , 31-H ) :   0.9536 B( 16-C , 18-C ) :   0.8747 B( 16-C , 19-H ) :   0.9607
B( 16-C , 20-H ) :   0.9795 B( 17-C , 25-C ) :   0.8721 B( 17-C , 26-H ) :   0.9838
B( 17-C , 27-H ) :   0.9510 B( 18-C , 21-H ) :   0.9529 B( 18-C , 22-H ) :   0.9726
B( 25-C , 28-H ) :   0.9707 B( 25-C , 29-H ) :   0.9534

FINAL SINGLE POINT ENERGY     -4592.704281664577

DIPOLE MOMENT
-------------
                                X             Y             Z
Electronic contribution:     15.70627     -21.37810       3.14232
Nuclear contribution   :    -17.55478      23.76669      -3.52191
                        -----------------------------------------
Total Dipole Moment    :     -1.84851       2.38859      -0.37958
                        -----------------------------------------
Magnitude (a.u.)       :      3.04408
Magnitude (Debye)      :      7.73744

Rotational constants in cm-1:     0.012769     0.002548     0.002431
Rotational constants in MHz :   382.805389    76.396427    72.880882

                             ****ORCA TERMINATED NORMALLY****
TOTAL RUN TIME: 0 days 0 hours 27 minutes 40 seconds 740 msec
