                         Program Version 5.0.4 -  RELEASE  -
|  1> ! nofrozencore ReducedPop printbasis
|  2> ! B3LYP TZVP
|  3>
|  4> %basis
|  5> newgto V "CP(PPP)" end
|  6> end
|  7>
|  8> %pal
|  9> nprocs 4
| 10> end
| 11>
| 12> % sym SymThresh 1e-2 end
| 13> * xyz -2 2
| 14> V 0.04089991383561818 0.7571304936745339 0.816706444385861
| 15> S 2.1180551489009907 0.96723434871265 -0.5054638223705191
| 16> S -1.2122896809990094 1.7395184597387015 -1.070313829306907
| 17> S 1.2396779912918865 -1.2598139045474914 1.5883940377583632
| 18> S -2.0921208051222275 -0.46885768164885844 1.0476232709593558
| 19> O 0.10498879462265569 1.8470552610908717 1.98966646910235
| 20> C -2.5554603536339777 1.275502380701802 -0.7297370622696514
| 21> C -2.927977912401937 0.3419412090024855 0.16504061566267117
| 22> C 2.9331573616277145 -0.0017554479219002736 0.1974655238408421
| 23> C 2.5611233127834354 -0.9436159195850197 1.0830311987735708
| 24> S -4.052053084193205 2.2198144016919583 -1.8833706739851561
| 25> S -4.979936169219319 -0.11899793341373882 0.34643350924884697
| 26> S 4.052770536088731 -2.2424873551098323 1.8622291964566453
| 27> S 4.9810817742692 0.11421106930303444 -0.35248572595476013
| 28> C -5.375891579985081 -0.9272673215900927 -1.2576321664849555
| 29> C 4.538339296537908 -3.2466758558326725 0.4006475269123585
| 30> C -4.664647011349625 0.8673495378009609 -2.968695282918991
| 31> C 5.25285767449976 -1.4391469570026174 -1.2969051152139384
| 32> C -5.76381344468942 0.0006988124642968942 -2.3897479652341196
| 33> H -3.818884432301366 0.25258241212792076 -3.2855075198706993
| 34> H -5.054354933606994 1.36054478786165 -3.8674128938543832
| 35> H -6.11718634516583 -0.644379789449513 -3.2134637686225296
| 36> H -6.612716592536601 0.6247985736373569 -2.089645216941345
| 37> H -6.219856515294837 -1.5977526092227579 -1.0553215510844234
| 38> H -4.53414380893315 -1.5574073245255247 -1.5542587693017627
| 39> C 5.622300051662786 -2.656551417338232 -0.47665662750543725
| 40> H 6.075432360412787 -1.22842637004034 -1.9912463250923076
| 41> H 4.369565406527884 -1.6444453731384476 -1.9063431477153727
| 42> H 6.515744464688691 -2.4487991182695104 0.12250000108633459
| 43> H 5.89886788347162 -3.4444835107254153 -1.1993975823136254
| 44> H 3.6477521163322417 -3.4732560605265137 -0.19039419660402618
| 45> H 4.904390523932964 -4.199792857679423 0.8015613318807503
| 46> *
| 47>
| 48> % eprnmr
| 49> gtensor true
| 50> Nuclei = all H {aiso,adip,aorb,fgrad,rho}
| 51> Nuclei = all V {aiso,adip,aorb,fgrad,rho}
| 52> end
| 53>
| 54>                          ****END OF INPUT****

CARTESIAN COORDINATES (ANGSTROEM)
---------------------------------
  V      0.040867    0.757958    0.817557
  S      2.118022    0.968062   -0.504613
  S     -1.212323    1.740346   -1.069463
  S      1.239645   -1.258987    1.589244
  S     -2.092154   -0.468030    1.048474
  O      0.104956    1.847883    1.990517
  C     -2.555494    1.276330   -0.728887
  C     -2.928011    0.342768    0.165891
  C      2.933124   -0.000928    0.198316
  C      2.561090   -0.942789    1.083882
  S     -4.052086    2.220642   -1.882520
  S     -4.979969   -0.118171    0.347284
  S      4.052737   -2.241660    1.863080
  S      4.981049    0.115038   -0.351635
  C     -5.375925   -0.926440   -1.256782
  C      4.538306   -3.245849    0.401498
  C     -4.664680    0.868177   -2.967845
  C      5.252824   -1.438320   -1.296055
  C     -5.763847    0.001526   -2.388898
  H     -3.818918    0.253410   -3.284657
  H     -5.054388    1.361372   -3.866562
  H     -6.117220   -0.643553   -3.212613
  H     -6.612750    0.625626   -2.088795
  H     -6.219890   -1.596925   -1.054471
  H     -4.534177   -1.556580   -1.553408
  C      5.622267   -2.655724   -0.475806
  H      6.075399   -1.227599   -1.990396
  H      4.369532   -1.643618   -1.905493
  H      6.515711   -2.447972    0.123350
  H      5.898835   -3.443656   -1.198547
  H      3.647719   -3.472429   -0.189544
  H      4.904357   -4.198966    0.802412

 Total Charge           Charge          ....   -2
 Multiplicity           Mult            ....    2
 Number of Electrons    NEL             ....  233
 Basis Dimension        Dim             ....  517

ORBITAL ENERGIES
----------------
                 SPIN UP ORBITALS
  NO   OCC          E(Eh)            E(eV)
   0   1.0000    -196.663704     -5351.4914
   1   1.0000     -88.658799     -2412.5286
   2   1.0000     -88.658665     -2412.5249
   3   1.0000     -88.656734     -2412.4724
   4   1.0000     -88.656575     -2412.4681
   5   1.0000     -88.621892     -2411.5243
   6   1.0000     -88.621785     -2411.5214
   7   1.0000     -88.621772     -2411.5210
   8   1.0000     -88.621568     -2411.5155
   9   1.0000     -22.038014      -599.6848
  10   1.0000     -18.879677      -513.7421
  11   1.0000     -18.543760      -504.6014
  12   1.0000     -18.539680      -504.4903
  13   1.0000     -18.539507      -504.4856
  14   1.0000     -10.007401      -272.3152
  15   1.0000     -10.007379      -272.3146
  16   1.0000     -10.006197      -272.2825
  17   1.0000     -10.006178      -272.2819
  18   1.0000      -9.993937      -271.9488
  19   1.0000      -9.992694      -271.9150
  20   1.0000      -9.983027      -271.6520
  21   1.0000      -9.982237      -271.6305
  22   1.0000      -9.981818      -271.6191
  23   1.0000      -9.981030      -271.5976
  24   1.0000      -7.711096      -209.8296
  25   1.0000      -7.710964      -209.8260
  26   1.0000      -7.709087      -209.7749
  27   1.0000      -7.708919      -209.7703
  28   1.0000      -7.687970      -209.2003
  29   1.0000      -7.687881      -209.1979
  30   1.0000      -7.687405      -209.1849
  31   1.0000      -7.687315      -209.1825
  32   1.0000      -5.676025      -154.4525
  33   1.0000      -5.675891      -154.4489
  34   1.0000      -5.673980      -154.3968
  35   1.0000      -5.673822      -154.3925
  36   1.0000      -5.672889      -154.3671
  37   1.0000      -5.672763      -154.3637
  38   1.0000      -5.670878      -154.3124
  39   1.0000      -5.670708      -154.3078
  40   1.0000      -5.665949      -154.1783
  41   1.0000      -5.665813      -154.1746
  42   1.0000      -5.663964      -154.1243
  43   1.0000      -5.663795      -154.1197
  44   1.0000      -5.650835      -153.7670
  45   1.0000      -5.650747      -153.7646
  46   1.0000      -5.650324      -153.7531
  47   1.0000      -5.650244      -153.7510
  48   1.0000      -5.646189      -153.6406
  49   1.0000      -5.646099      -153.6382
  50   1.0000      -5.645669      -153.6265
  51   1.0000      -5.645589      -153.6243
  52   1.0000      -5.645554      -153.6233
  53   1.0000      -5.645451      -153.6205
  54   1.0000      -5.645057      -153.6098
  55   1.0000      -5.644966      -153.6073
  56   1.0000      -2.433820       -66.2276
  57   1.0000      -1.473195       -40.0877
  58   1.0000      -1.464740       -39.8576
  59   1.0000      -1.464046       -39.8387
  60   1.0000      -0.660788       -17.9809
  61   1.0000      -0.657440       -17.8899
  62   1.0000      -0.638917       -17.3858
  63   1.0000      -0.625345       -17.0165
  64   1.0000      -0.624576       -16.9956
  65   1.0000      -0.582319       -15.8457
  66   1.0000      -0.579163       -15.7598
  67   1.0000      -0.546226       -14.8636
  68   1.0000      -0.545893       -14.8545
  69   1.0000      -0.486756       -13.2453
  70   1.0000      -0.485019       -13.1980
  71   1.0000      -0.411253       -11.1908
  72   1.0000      -0.409534       -11.1440
  73   1.0000      -0.407044       -11.0762
  74   1.0000      -0.402866       -10.9625
  75   1.0000      -0.372995       -10.1497
  76   1.0000      -0.371867       -10.1190
  77   1.0000      -0.285364        -7.7651
  78   1.0000      -0.284240        -7.7346
  79   1.0000      -0.267092        -7.2679
  80   1.0000      -0.265625        -7.2280
  81   1.0000      -0.246743        -6.7142
  82   1.0000      -0.241158        -6.5622
  83   1.0000      -0.235351        -6.4042
  84   1.0000      -0.223552        -6.0831
  85   1.0000      -0.219690        -5.9781
  86   1.0000      -0.199307        -5.4234
  87   1.0000      -0.189406        -5.1540
  88   1.0000      -0.185606        -5.0506
  89   1.0000      -0.184229        -5.0131
  90   1.0000      -0.179828        -4.8934
  91   1.0000      -0.179480        -4.8839
  92   1.0000      -0.170240        -4.6325
  93   1.0000      -0.162648        -4.4259
  94   1.0000      -0.159875        -4.3504
  95   1.0000      -0.155182        -4.2227
  96   1.0000      -0.151865        -4.1325
  97   1.0000      -0.116091        -3.1590
  98   1.0000      -0.110599        -3.0096
  99   1.0000      -0.107676        -2.9300
 100   1.0000      -0.103057        -2.8043
 101   1.0000      -0.092563        -2.5188
 102   1.0000      -0.090397        -2.4598
 103   1.0000      -0.087881        -2.3914
 104   1.0000      -0.064765        -1.7623
 105   1.0000      -0.060266        -1.6399
 106   1.0000      -0.047188        -1.2840
 107   1.0000      -0.039965        -1.0875
 108   1.0000      -0.028222        -0.7680
 109   1.0000      -0.026841        -0.7304
 110   1.0000      -0.025231        -0.6866
 111   1.0000      -0.010046        -0.2734
 112   1.0000      -0.008775        -0.2388
 113   1.0000       0.006722         0.1829
 114   1.0000       0.010654         0.2899
 115   1.0000       0.050014         1.3609
 116   1.0000       0.080103         2.1797
 117   0.0000       0.162846         4.4313
 118   0.0000       0.164817         4.4849
 119   0.0000       0.175681         4.7805
 120   0.0000       0.179467         4.8835
 121   0.0000       0.198111         5.3909

                 SPIN DOWN ORBITALS
  NO   OCC          E(Eh)            E(eV)
   0   1.0000    -196.663822     -5351.4947
   1   1.0000     -88.658856     -2412.5301
   2   1.0000     -88.658721     -2412.5265
   3   1.0000     -88.656795     -2412.4740
   4   1.0000     -88.656636     -2412.4697
   5   1.0000     -88.622028     -2411.5280
   6   1.0000     -88.621921     -2411.5251
   7   1.0000     -88.621905     -2411.5246
   8   1.0000     -88.621702     -2411.5191
   9   1.0000     -22.022795      -599.2707
  10   1.0000     -18.883389      -513.8431
  11   1.0000     -18.538226      -504.4508
  12   1.0000     -18.523328      -504.0454
  13   1.0000     -18.523236      -504.0429
  14   1.0000     -10.007398      -272.3151
  15   1.0000     -10.007376      -272.3145
  16   1.0000     -10.006193      -272.2824
  17   1.0000     -10.006174      -272.2818
  18   1.0000      -9.993938      -271.9489
  19   1.0000      -9.992696      -271.9151
  20   1.0000      -9.982865      -271.6476
  21   1.0000      -9.982076      -271.6261
  22   1.0000      -9.981650      -271.6145
  23   1.0000      -9.980864      -271.5931
  24   1.0000      -7.711153      -209.8312
  25   1.0000      -7.711021      -209.8276
  26   1.0000      -7.709147      -209.7766
  27   1.0000      -7.708979      -209.7720
  28   1.0000      -7.688098      -209.2038
  29   1.0000      -7.688008      -209.2013
  30   1.0000      -7.687534      -209.1884
  31   1.0000      -7.687444      -209.1860
  32   1.0000      -5.676103      -154.4546
  33   1.0000      -5.675969      -154.4510
  34   1.0000      -5.674062      -154.3991
  35   1.0000      -5.673904      -154.3948
  36   1.0000      -5.672996      -154.3701
  37   1.0000      -5.672870      -154.3666
  38   1.0000      -5.670996      -154.3156
  39   1.0000      -5.670825      -154.3110
  40   1.0000      -5.666003      -154.1798
  41   1.0000      -5.665867      -154.1761
  42   1.0000      -5.664021      -154.1258
  43   1.0000      -5.663851      -154.1212
  44   1.0000      -5.650969      -153.7707
  45   1.0000      -5.650881      -153.7683
  46   1.0000      -5.650461      -153.7569
  47   1.0000      -5.650381      -153.7547
  48   1.0000      -5.646464      -153.6481
  49   1.0000      -5.646373      -153.6456
  50   1.0000      -5.645952      -153.6342
  51   1.0000      -5.645869      -153.6319
  52   1.0000      -5.645722      -153.6279
  53   1.0000      -5.645620      -153.6251
  54   1.0000      -5.645223      -153.6143
  55   1.0000      -5.645135      -153.6119
  56   1.0000      -2.387966       -64.9799
  57   1.0000      -1.452806       -39.5329
  58   1.0000      -1.401950       -38.1490
  59   1.0000      -1.400948       -38.1217
  60   1.0000      -0.660873       -17.9833
  61   1.0000      -0.657473       -17.8907
  62   1.0000      -0.646765       -17.5994
  63   1.0000      -0.625382       -17.0175
  64   1.0000      -0.624611       -16.9965
  65   1.0000      -0.582468       -15.8498
  66   1.0000      -0.579322       -15.7642
  67   1.0000      -0.546352       -14.8670
  68   1.0000      -0.546025       -14.8581
  69   1.0000      -0.486966       -13.2510
  70   1.0000      -0.485243       -13.2041
  71   1.0000      -0.411500       -11.1975
  72   1.0000      -0.409796       -11.1511
  73   1.0000      -0.407114       -11.0781
  74   1.0000      -0.403030       -10.9670
  75   1.0000      -0.373073       -10.1518
  76   1.0000      -0.371954       -10.1214
  77   1.0000      -0.285380        -7.7656
  78   1.0000      -0.284262        -7.7352
  79   1.0000      -0.267071        -7.2674
  80   1.0000      -0.265634        -7.2283
  81   1.0000      -0.246491        -6.7074
  82   1.0000      -0.241209        -6.5636
  83   1.0000      -0.235168        -6.3993
  84   1.0000      -0.223379        -6.0784
  85   1.0000      -0.218558        -5.9473
  86   1.0000      -0.199198        -5.4204
  87   1.0000      -0.187769        -5.1095
  88   1.0000      -0.185598        -5.0504
  89   1.0000      -0.184221        -5.0129
  90   1.0000      -0.179723        -4.8905
  91   1.0000      -0.179420        -4.8823
  92   1.0000      -0.170053        -4.6274
  93   1.0000      -0.162044        -4.4095
  94   1.0000      -0.159800        -4.3484
  95   1.0000      -0.155190        -4.2229
  96   1.0000      -0.151839        -4.1318
  97   1.0000      -0.114705        -3.1213
  98   1.0000      -0.110515        -3.0073
  99   1.0000      -0.107651        -2.9293
 100   1.0000      -0.104813        -2.8521
 101   1.0000      -0.094769        -2.5788
 102   1.0000      -0.090129        -2.4525
 103   1.0000      -0.088068        -2.3965
 104   1.0000      -0.065027        -1.7695
 105   1.0000      -0.061784        -1.6812
 106   1.0000      -0.044988        -1.2242
 107   1.0000      -0.039948        -1.0870
 108   1.0000      -0.026986        -0.7343
 109   1.0000      -0.025590        -0.6963
 110   1.0000      -0.022949        -0.6245
 111   1.0000      -0.008124        -0.2211
 112   1.0000       0.007173         0.1952
 113   1.0000       0.010753         0.2926
 114   1.0000       0.050824         1.3830
 115   1.0000       0.079223         2.1558
 116   0.0000       0.154908         4.2153
 117   0.0000       0.170645         4.6435
 118   0.0000       0.182185         4.9575
 119   0.0000       0.187428         5.1002
 120   0.0000       0.196193         5.3387

MULLIKEN ATOMIC CHARGES AND SPIN POPULATIONS
--------------------------------------------
   0 V :    0.271575    1.237108
   1 S :   -0.127956   -0.018211
   2 S :   -0.133768   -0.018510
   3 S :   -0.128392   -0.018188
   4 S :   -0.134285   -0.018495
   5 O :   -0.483705   -0.144426
   6 C :   -0.099127    0.002578
   7 C :   -0.096837    0.002660
   8 C :   -0.096727    0.002860
   9 C :   -0.096904    0.002677
  10 S :   -0.156217   -0.007279
  11 S :   -0.155752   -0.007287
  12 S :   -0.163236   -0.008000
  13 S :   -0.162254   -0.008017
  14 C :   -0.310351    0.000564
  15 C :   -0.307880    0.000721
  16 C :   -0.310338    0.000555
  17 C :   -0.308798    0.000731
  18 C :   -0.063974   -0.000083
  19 H :    0.131543   -0.000322
  20 H :    0.097850   -0.000048
  21 H :    0.033105   -0.000007
  22 H :    0.074516   -0.000112
  23 H :    0.097967   -0.000047
  24 H :    0.131726   -0.000324
  25 C :   -0.062862   -0.000172
  26 H :    0.097318   -0.000033
  27 H :    0.130419   -0.000364
  28 H :    0.073858   -0.000142
  29 H :    0.032207    0.000008
  30 H :    0.130204   -0.000359
  31 H :    0.097074   -0.000035
Sum of atomic charges         :   -2.0000000

LOEWDIN ATOMIC CHARGES AND SPIN POPULATIONS
-------------------------------------------
   0 V :   -0.190912    1.189787
   1 S :    0.297026   -0.011982
   2 S :    0.285882   -0.012213
   3 S :    0.295899   -0.011962
   4 S :    0.285743   -0.012224
   5 O :   -0.350470   -0.128031
   6 C :   -0.577236    0.004399
   7 C :   -0.577385    0.004374
   8 C :   -0.579555    0.004537
   9 C :   -0.578771    0.004509
  10 S :    0.175293   -0.007237
  11 S :    0.175939   -0.007243
  12 S :    0.166317   -0.007836
  13 S :    0.167712   -0.007850
  14 C :   -0.307636    0.000098
  15 C :   -0.308319    0.000129
  16 C :   -0.307722    0.000096
  17 C :   -0.308503    0.000134
  18 C :   -0.189250   -0.000094
  19 H :    0.059426   -0.000196
  20 H :    0.046252   -0.000101
  21 H :    0.044334   -0.000020
  22 H :    0.052719   -0.000029
  23 H :    0.046261   -0.000098
  24 H :    0.059660   -0.000197
  25 C :   -0.189488   -0.000093
  26 H :    0.046070   -0.000091
  27 H :    0.059086   -0.000213
  28 H :    0.052616   -0.000037
  29 H :    0.044027   -0.000015
  30 H :    0.058979   -0.000211
  31 H :    0.046004   -0.000092

  Mayer bond orders larger than 0.100000
B(  0-V ,  1-S ) :   0.7860 B(  0-V ,  2-S ) :   0.7905 B(  0-V ,  3-S ) :   0.7878
B(  0-V ,  4-S ) :   0.7886 B(  0-V ,  5-O ) :   2.1129 B(  1-S ,  8-C ) :   1.4320
B(  2-S ,  6-C ) :   1.4170 B(  3-S ,  9-C ) :   1.4303 B(  4-S ,  7-C ) :   1.4170
B(  6-C ,  7-C ) :   1.4659 B(  6-C , 10-S ) :   0.7283 B(  7-C , 11-S ) :   0.7292
B(  8-C ,  9-C ) :   1.4658 B(  8-C , 13-S ) :   0.7159 B(  9-C , 12-S ) :   0.7148
B( 10-S , 16-C ) :   1.0654 B( 11-S , 14-C ) :   1.0645 B( 12-S , 15-C ) :   1.0678
B( 13-S , 17-C ) :   1.0677 B( 14-C , 18-C ) :   0.8808 B( 14-C , 23-H ) :   0.9704
B( 14-C , 24-H ) :   0.9778 B( 15-C , 25-C ) :   0.8810 B( 15-C , 30-H ) :   0.9775
B( 15-C , 31-H ) :   0.9706 B( 16-C , 18-C ) :   0.8804 B( 16-C , 19-H ) :   0.9774
B( 16-C , 20-H ) :   0.9705 B( 17-C , 25-C ) :   0.8808 B( 17-C , 26-H ) :   0.9703
B( 17-C , 27-H ) :   0.9778 B( 18-C , 21-H ) :   0.9530 B( 18-C , 22-H ) :   0.9692
B( 25-C , 28-H ) :   0.9689 B( 25-C , 29-H ) :   0.9530

FINAL SINGLE POINT ENERGY     -4592.419508023400

DIPOLE MOMENT
-------------
                                X             Y             Z
Electronic contribution:      0.90513      18.62074      20.06253
Nuclear contribution   :     -1.07630     -20.38346     -21.99886
                        -----------------------------------------
Total Dipole Moment    :     -0.17118      -1.76272      -1.93633
                        -----------------------------------------
Magnitude (a.u.)       :      2.62410
Magnitude (Debye)      :      6.66992

Rotational constants in cm-1:     0.012816     0.002549     0.002434
Rotational constants in MHz :   384.210274    76.404787    72.956744

                             ****ORCA TERMINATED NORMALLY****
TOTAL RUN TIME: 0 days 0 hours 44 minutes 13 seconds 586 msec
