                         Program Version 5.0.4 -  RELEASE  -
|  1> ! nofrozencore ReducedPop printbasis
|  2> ! B3LYP TZVP
|  3>
|  4> %basis
|  5> newgto V "CP(PPP)" end
|  6> end
|  7>
|  8> %pal
|  9> nprocs 4
| 10> end
| 11>
| 12> % sym SymThresh 1e-2 end
| 13> * xyz -2 2
| 14> V 0.38411483519246986 0.6332422453429202 0.8341243135696971
| 15> S -1.879358029824217 1.4040835244292669 0.29710575950412743
| 16> S -0.7075978780596929 -1.3271316420934645 1.8153839056446777
| 17> S 0.9563368360959613 1.7369071104188087 -1.2761943719714284
| 18> S 2.141462536346217 -0.9778858316381641 0.26502099586818145
| 19> O 0.9292556476430074 1.5431013657602024 2.027044694247409
| 20> C 0.5877638442028932 -2.5355336155305284 1.9241922501744786
| 21> C 1.776645511834689 -2.389769453196757 1.2754892280448034
| 22> C -1.6274700577854835 2.61704615775048 -0.9607119182757969
| 23> C -0.44655136189790523 2.7580295981642107 -1.6181903419873962
| 24> S 0.1999462398917513 -3.968053533023194 2.9173159342738817
| 25> S 3.0694602402197253 -3.6201658524554587 1.3464629651236977
| 26> S -0.19590105203358865 3.972591786126199 -2.930727473632406
| 27> S -3.0750066622257655 3.63495386541891 -1.3325158578779743
| 28> C 2.3382283712748997 -5.133483121072853 0.4035742716752887
| 29> C -1.2845594547233943 3.3493265224166016 -4.270875154655243
| 30> C 0.07343631882691141 -5.409532422830357 1.6448036641320662
| 31> C -3.5322728469032496 3.0868558484679376 -3.023273494134841
| 32> C 1.4257365734467975 -5.841683584985676 1.2984202059880616
| 33> H -0.3434777819524291 -4.989772546163648 0.7150965229719577
| 34> H -0.5483582439293389 -6.277384445436791 1.9498495295288707
| 35> H 1.0480189961292752 -6.540223902769053 0.45412393748127805
| 36> H 1.9294342308287598 -6.535948931992254 2.0636545585936905
| 37> H 3.0747319299019114 -5.8355204567652 -0.04118583861647368
| 38> H 1.7009115532797001 -4.737168736668515 -0.4035250587448797
| 39> C -2.7744914086259804 3.729622349516932 -4.198940813175677
| 40> H -4.594132267434409 3.3460513909397345 -3.090396903240624
| 41> H -3.457998131938805 1.99724183798421 -3.0389038585105292
| 42> H -2.836720862762491 4.818536889940327 -4.082527997766976
| 43> H -3.2721557568798687 3.4760515974448865 -5.1485993825571414
| 44> H -1.1431301422987827 2.267483338225781 -4.3221867408806425
| 45> H -0.842102760037018 3.783371580752138 -5.173689531243646
| 46> *
| 47>
| 48> % eprnmr
| 49> gtensor true
| 50> Nuclei = all H {aiso,adip,aorb,fgrad,rho}
| 51> Nuclei = all V {aiso,adip,aorb,fgrad,rho}
| 52> end
| 53>
| 54>                          ****END OF INPUT****

CARTESIAN COORDINATES (ANGSTROEM)
---------------------------------
  V      0.384546    0.633847    0.835050
  S     -1.878927    1.404689    0.298032
  S     -0.707167   -1.326527    1.816310
  S      0.956768    1.737512   -1.275269
  S      2.141893   -0.977281    0.265947
  O      0.929686    1.543706    2.027970
  C      0.588195   -2.534929    1.925118
  C      1.777076   -2.389164    1.276415
  C     -1.627039    2.617651   -0.959786
  C     -0.446121    2.758635   -1.617265
  S      0.200377   -3.967448    2.918242
  S      3.069891   -3.619561    1.347389
  S     -0.195470    3.973197   -2.929802
  S     -3.074576    3.635559   -1.331590
  C      2.338659   -5.132878    0.404500
  C     -1.284129    3.349932   -4.269949
  C      0.073867   -5.408927    1.645729
  C     -3.531842    3.087461   -3.022348
  C      1.426167   -5.841079    1.299346
  H     -0.343047   -4.989167    0.716022
  H     -0.547927   -6.276779    1.950775
  H      1.048450   -6.539619    0.455050
  H      1.929865   -6.535344    2.064580
  H      3.075163   -5.834915   -0.040260
  H      1.701342   -4.736564   -0.402599
  C     -2.774061    3.730227   -4.198015
  H     -4.593701    3.346656   -3.089471
  H     -3.457567    1.997847   -3.037978
  H     -2.836290    4.819142   -4.081602
  H     -3.271725    3.476657   -5.147674
  H     -1.142699    2.268088   -4.321261
  H     -0.841672    3.783977   -5.172764

 Total Charge           Charge          ....   -2
 Multiplicity           Mult            ....    2
 Number of Electrons    NEL             ....  233
 Basis Dimension        Dim             ....  517

ORBITAL ENERGIES
----------------
                 SPIN UP ORBITALS
  NO   OCC          E(Eh)            E(eV)
   0   1.0000    -196.640248     -5350.8532
   1   1.0000     -88.677091     -2413.0263
   2   1.0000     -88.676921     -2413.0217
   3   1.0000     -88.674141     -2412.9461
   4   1.0000     -88.674104     -2412.9450
   5   1.0000     -88.613090     -2411.2848
   6   1.0000     -88.613078     -2411.2844
   7   1.0000     -88.612186     -2411.2602
   8   1.0000     -88.612074     -2411.2571
   9   1.0000     -22.016048      -599.0871
  10   1.0000     -18.857475      -513.1380
  11   1.0000     -18.522892      -504.0335
  12   1.0000     -18.517089      -503.8756
  13   1.0000     -18.517054      -503.8746
  14   1.0000     -10.023620      -272.7566
  15   1.0000     -10.023590      -272.7558
  16   1.0000     -10.015386      -272.5325
  17   1.0000     -10.015374      -272.5322
  18   1.0000     -10.009725      -272.3785
  19   1.0000     -10.006335      -272.2862
  20   1.0000      -9.993906      -271.9480
  21   1.0000      -9.993196      -271.9287
  22   1.0000      -9.991762      -271.8897
  23   1.0000      -9.991014      -271.8693
  24   1.0000      -7.730843      -210.3669
  25   1.0000      -7.730676      -210.3624
  26   1.0000      -7.727288      -210.2702
  27   1.0000      -7.727255      -210.2693
  28   1.0000      -7.667400      -208.6406
  29   1.0000      -7.667380      -208.6400
  30   1.0000      -7.666662      -208.6205
  31   1.0000      -7.666484      -208.6156
  32   1.0000      -5.696077      -154.9981
  33   1.0000      -5.695907      -154.9935
  34   1.0000      -5.692602      -154.9036
  35   1.0000      -5.692570      -154.9027
  36   1.0000      -5.692179      -154.8921
  37   1.0000      -5.692015      -154.8876
  38   1.0000      -5.688662      -154.7964
  39   1.0000      -5.688635      -154.7956
  40   1.0000      -5.685602      -154.7131
  41   1.0000      -5.685429      -154.7084
  42   1.0000      -5.682009      -154.6153
  43   1.0000      -5.681976      -154.6144
  44   1.0000      -5.632244      -153.2611
  45   1.0000      -5.632228      -153.2607
  46   1.0000      -5.631491      -153.2407
  47   1.0000      -5.631334      -153.2364
  48   1.0000      -5.625780      -153.0852
  49   1.0000      -5.625778      -153.0852
  50   1.0000      -5.625428      -153.0757
  51   1.0000      -5.625403      -153.0750
  52   1.0000      -5.625103      -153.0668
  53   1.0000      -5.624931      -153.0622
  54   1.0000      -5.624652      -153.0546
  55   1.0000      -5.624470      -153.0496
  56   1.0000      -2.409754       -65.5727
  57   1.0000      -1.451182       -39.4887
  58   1.0000      -1.439511       -39.1711
  59   1.0000      -1.438443       -39.1420
  60   1.0000      -0.656764       -17.8715
  61   1.0000      -0.643003       -17.4970
  62   1.0000      -0.618554       -16.8317
  63   1.0000      -0.602063       -16.3830
  64   1.0000      -0.592318       -16.1178
  65   1.0000      -0.577615       -15.7177
  66   1.0000      -0.568604       -15.4725
  67   1.0000      -0.495424       -13.4812
  68   1.0000      -0.491923       -13.3859
  69   1.0000      -0.486216       -13.2306
  70   1.0000      -0.483027       -13.1438
  71   1.0000      -0.427204       -11.6248
  72   1.0000      -0.420428       -11.4404
  73   1.0000      -0.411598       -11.2001
  74   1.0000      -0.399960       -10.8835
  75   1.0000      -0.375408       -10.2154
  76   1.0000      -0.372525       -10.1369
  77   1.0000      -0.304502        -8.2859
  78   1.0000      -0.291354        -7.9281
  79   1.0000      -0.278063        -7.5665
  80   1.0000      -0.277836        -7.5603
  81   1.0000      -0.260335        -7.0841
  82   1.0000      -0.253486        -6.8977
  83   1.0000      -0.244505        -6.6533
  84   1.0000      -0.239339        -6.5127
  85   1.0000      -0.216528        -5.8920
  86   1.0000      -0.194343        -5.2883
  87   1.0000      -0.189372        -5.1531
  88   1.0000      -0.189068        -5.1448
  89   1.0000      -0.185825        -5.0566
  90   1.0000      -0.182014        -4.9528
  91   1.0000      -0.170622        -4.6429
  92   1.0000      -0.151100        -4.1116
  93   1.0000      -0.149459        -4.0670
  94   1.0000      -0.142870        -3.8877
  95   1.0000      -0.140794        -3.8312
  96   1.0000      -0.137680        -3.7465
  97   1.0000      -0.097149        -2.6436
  98   1.0000      -0.097030        -2.6403
  99   1.0000      -0.088744        -2.4148
 100   1.0000      -0.082264        -2.2385
 101   1.0000      -0.080498        -2.1905
 102   1.0000      -0.076902        -2.0926
 103   1.0000      -0.062294        -1.6951
 104   1.0000      -0.050646        -1.3781
 105   1.0000      -0.038310        -1.0425
 106   1.0000      -0.038036        -1.0350
 107   1.0000      -0.033444        -0.9101
 108   1.0000      -0.031634        -0.8608
 109   1.0000      -0.012285        -0.3343
 110   1.0000      -0.004577        -0.1246
 111   1.0000      -0.003054        -0.0831
 112   1.0000       0.006078         0.1654
 113   1.0000       0.011062         0.3010
 114   1.0000       0.016276         0.4429
 115   1.0000       0.032724         0.8905
 116   1.0000       0.058843         1.6012
 117   0.0000       0.178305         4.8519
 118   0.0000       0.185129         5.0376
 119   0.0000       0.194012         5.2793
 120   0.0000       0.197100         5.3634
 121   0.0000       0.211115         5.7447

                 SPIN DOWN ORBITALS
  NO   OCC          E(Eh)            E(eV)
   0   1.0000    -196.640390     -5350.8570
   1   1.0000     -88.677105     -2413.0267
   2   1.0000     -88.676935     -2413.0221
   3   1.0000     -88.674154     -2412.9464
   4   1.0000     -88.674116     -2412.9454
   5   1.0000     -88.613251     -2411.2891
   6   1.0000     -88.613239     -2411.2888
   7   1.0000     -88.612346     -2411.2645
   8   1.0000     -88.612234     -2411.2615
   9   1.0000     -22.001392      -598.6883
  10   1.0000     -18.861044      -513.2351
  11   1.0000     -18.517770      -503.8941
  12   1.0000     -18.501607      -503.4543
  13   1.0000     -18.500933      -503.4360
  14   1.0000     -10.023617      -272.7565
  15   1.0000     -10.023587      -272.7557
  16   1.0000     -10.015382      -272.5324
  17   1.0000     -10.015370      -272.5321
  18   1.0000     -10.009723      -272.3784
  19   1.0000     -10.006335      -272.2862
  20   1.0000      -9.993646      -271.9409
  21   1.0000      -9.992937      -271.9217
  22   1.0000      -9.991509      -271.8828
  23   1.0000      -9.990762      -271.8625
  24   1.0000      -7.730857      -210.3673
  25   1.0000      -7.730690      -210.3628
  26   1.0000      -7.727301      -210.2705
  27   1.0000      -7.727269      -210.2697
  28   1.0000      -7.667549      -208.6446
  29   1.0000      -7.667530      -208.6441
  30   1.0000      -7.666810      -208.6245
  31   1.0000      -7.666633      -208.6197
  32   1.0000      -5.696094      -154.9986
  33   1.0000      -5.695924      -154.9940
  34   1.0000      -5.692617      -154.9040
  35   1.0000      -5.692585      -154.9031
  36   1.0000      -5.692199      -154.8926
  37   1.0000      -5.692036      -154.8882
  38   1.0000      -5.688683      -154.7969
  39   1.0000      -5.688656      -154.7962
  40   1.0000      -5.685619      -154.7136
  41   1.0000      -5.685446      -154.7088
  42   1.0000      -5.682025      -154.6158
  43   1.0000      -5.681991      -154.6148
  44   1.0000      -5.632418      -153.2659
  45   1.0000      -5.632403      -153.2655
  46   1.0000      -5.631661      -153.2453
  47   1.0000      -5.631505      -153.2410
  48   1.0000      -5.626169      -153.0958
  49   1.0000      -5.626166      -153.0958
  50   1.0000      -5.625568      -153.0795
  51   1.0000      -5.625546      -153.0789
  52   1.0000      -5.625494      -153.0775
  53   1.0000      -5.625323      -153.0728
  54   1.0000      -5.624787      -153.0582
  55   1.0000      -5.624606      -153.0533
  56   1.0000      -2.365608       -64.3715
  57   1.0000      -1.432388       -38.9772
  58   1.0000      -1.378141       -37.5011
  59   1.0000      -1.377508       -37.4839
  60   1.0000      -0.656739       -17.8708
  61   1.0000      -0.642950       -17.4956
  62   1.0000      -0.626185       -17.0394
  63   1.0000      -0.601837       -16.3768
  64   1.0000      -0.592124       -16.1125
  65   1.0000      -0.577612       -15.7176
  66   1.0000      -0.568590       -15.4721
  67   1.0000      -0.495400       -13.4805
  68   1.0000      -0.491949       -13.3866
  69   1.0000      -0.486235       -13.2311
  70   1.0000      -0.483078       -13.1452
  71   1.0000      -0.427503       -11.6329
  72   1.0000      -0.420716       -11.4483
  73   1.0000      -0.411633       -11.2011
  74   1.0000      -0.400015       -10.8850
  75   1.0000      -0.375373       -10.2144
  76   1.0000      -0.372542       -10.1374
  77   1.0000      -0.304493        -8.2857
  78   1.0000      -0.291335        -7.9276
  79   1.0000      -0.278025        -7.5654
  80   1.0000      -0.277815        -7.5597
  81   1.0000      -0.260153        -7.0791
  82   1.0000      -0.253398        -6.8953
  83   1.0000      -0.244426        -6.6512
  84   1.0000      -0.239254        -6.5104
  85   1.0000      -0.216523        -5.8919
  86   1.0000      -0.193894        -5.2761
  87   1.0000      -0.189329        -5.1519
  88   1.0000      -0.188959        -5.1418
  89   1.0000      -0.185790        -5.0556
  90   1.0000      -0.179968        -4.8972
  91   1.0000      -0.170532        -4.6404
  92   1.0000      -0.150414        -4.0930
  93   1.0000      -0.149157        -4.0588
  94   1.0000      -0.142667        -3.8822
  95   1.0000      -0.140546        -3.8245
  96   1.0000      -0.137423        -3.7395
  97   1.0000      -0.096567        -2.6277
  98   1.0000      -0.095676        -2.6035
  99   1.0000      -0.088862        -2.4181
 100   1.0000      -0.082414        -2.2426
 101   1.0000      -0.081776        -2.2252
 102   1.0000      -0.077698        -2.1143
 103   1.0000      -0.062922        -1.7122
 104   1.0000      -0.046259        -1.2588
 105   1.0000      -0.038407        -1.0451
 106   1.0000      -0.037166        -1.0113
 107   1.0000      -0.032516        -0.8848
 108   1.0000      -0.031583        -0.8594
 109   1.0000      -0.011386        -0.3098
 110   1.0000      -0.005915        -0.1610
 111   1.0000      -0.002195        -0.0597
 112   1.0000       0.007039         0.1916
 113   1.0000       0.011974         0.3258
 114   1.0000       0.032965         0.8970
 115   1.0000       0.058052         1.5797
 116   0.0000       0.178864         4.8671
 117   0.0000       0.184689         5.0257
 118   0.0000       0.185272         5.0415
 119   0.0000       0.194772         5.3000
 120   0.0000       0.197315         5.3692

MULLIKEN ATOMIC CHARGES AND SPIN POPULATIONS
--------------------------------------------
   0 V :    0.446219    1.198407
   1 S :   -0.254015   -0.024133
   2 S :   -0.249220   -0.024146
   3 S :   -0.255462   -0.024161
   4 S :   -0.249089   -0.024055
   5 O :   -0.506044   -0.138521
   6 C :   -0.110159    0.008994
   7 C :   -0.108557    0.009019
   8 C :   -0.116474    0.008830
   9 C :   -0.117701    0.008849
  10 S :   -0.061903    0.000045
  11 S :   -0.061707    0.000005
  12 S :   -0.041970   -0.000211
  13 S :   -0.043413   -0.000262
  14 C :   -0.310115    0.000219
  15 C :   -0.336835    0.000313
  16 C :   -0.307966    0.000200
  17 C :   -0.336577    0.000331
  18 C :   -0.070441    0.000281
  19 H :    0.134598   -0.000072
  20 H :    0.104638    0.000010
  21 H :   -0.000176    0.000027
  22 H :    0.079623    0.000091
  23 H :    0.104686    0.000012
  24 H :    0.135241   -0.000075
  25 C :   -0.089321    0.000128
  26 H :    0.099968    0.000029
  27 H :    0.147593   -0.000113
  28 H :    0.077387   -0.000003
  29 H :    0.049483    0.000046
  30 H :    0.147910   -0.000109
  31 H :    0.099799    0.000027
Sum of atomic charges         :   -2.0000000

LOEWDIN ATOMIC CHARGES AND SPIN POPULATIONS
-------------------------------------------
   0 V :   -0.245207    1.152469
   1 S :    0.088676   -0.016321
   2 S :    0.090729   -0.016487
   3 S :    0.086681   -0.016353
   4 S :    0.090924   -0.016437
   5 O :   -0.350322   -0.123989
   6 C :   -0.558076    0.010286
   7 C :   -0.557490    0.010238
   8 C :   -0.551602    0.009874
   9 C :   -0.552632    0.009965
  10 S :    0.313130   -0.000901
  11 S :    0.312823   -0.000924
  12 S :    0.340831   -0.001051
  13 S :    0.339557   -0.001082
  14 C :   -0.275534    0.000202
  15 C :   -0.296971    0.000166
  16 C :   -0.275482    0.000192
  17 C :   -0.297184    0.000173
  18 C :   -0.202994   -0.000012
  19 H :    0.069178   -0.000020
  20 H :    0.057432    0.000003
  21 H :    0.050706    0.000068
  22 H :    0.055662    0.000013
  23 H :    0.057477    0.000004
  24 H :    0.069416   -0.000021
  25 C :   -0.184304   -0.000044
  26 H :    0.046273    0.000009
  27 H :    0.065266   -0.000030
  28 H :    0.054073    0.000010
  29 H :    0.047397    0.000016
  30 H :    0.065348   -0.000028
  31 H :    0.046220    0.000009

  Mayer bond orders larger than 0.100000
B(  0-V ,  1-S ) :   0.7877 B(  0-V ,  2-S ) :   0.7912 B(  0-V ,  3-S ) :   0.7909
B(  0-V ,  4-S ) :   0.7886 B(  0-V ,  5-O ) :   2.1085 B(  1-S ,  8-C ) :   1.1398
B(  2-S ,  6-C ) :   1.1380 B(  3-S ,  9-C ) :   1.1354 B(  4-S ,  7-C ) :   1.1396
B(  6-C ,  7-C ) :   1.4862 B(  6-C , 10-S ) :   0.9640 B(  7-C , 11-S ) :   0.9632
B(  8-C ,  9-C ) :   1.5212 B(  8-C , 13-S ) :   0.9507 B(  9-C , 12-S ) :   0.9535
B( 10-S , 16-C ) :   0.9592 B( 11-S , 14-C ) :   0.9597 B( 12-S , 15-C ) :   1.0081
B( 13-S , 17-C ) :   1.0089 B( 14-C , 18-C ) :   0.9143 B( 14-C , 23-H ) :   0.9587
B( 14-C , 24-H ) :   0.9761 B( 15-C , 25-C ) :   0.8747 B( 15-C , 30-H ) :   0.9738
B( 15-C , 31-H ) :   0.9716 B( 16-C , 18-C ) :   0.9141 B( 16-C , 19-H ) :   0.9760
B( 16-C , 20-H ) :   0.9587 B( 17-C , 25-C ) :   0.8746 B( 17-C , 26-H ) :   0.9717
B( 17-C , 27-H ) :   0.9737 B( 18-C , 21-H ) :   0.9599 B( 18-C , 22-H ) :   0.9210
B( 25-C , 28-H ) :   0.9787 B( 25-C , 29-H ) :   0.9494

FINAL SINGLE POINT ENERGY     -4592.678665915417

DIPOLE MOMENT
-------------
                                X             Y             Z
Electronic contribution:      9.37908      15.47483      20.34760
Nuclear contribution   :    -10.48516     -17.21176     -22.72709
                        -----------------------------------------
Total Dipole Moment    :     -1.10608      -1.73693      -2.37950
                        -----------------------------------------
Magnitude (a.u.)       :      3.14680
Magnitude (Debye)      :      7.99852

Rotational constants in cm-1:     0.012767     0.002548     0.002432
Rotational constants in MHz :   382.756620    76.380990    72.916769

                             ****ORCA TERMINATED NORMALLY****
TOTAL RUN TIME: 0 days 0 hours 42 minutes 57 seconds 691 msec
